/*--------------------------------*- C++ -*----------------------------------*\
| =========                 |                                                 |
| \\      /  F ield         | OpenFOAM: The Open Source CFD Toolbox           |
|  \\    /   O peration     | Version:  5.x                                   |
|   \\  /    A nd           | Web:      www.OpenFOAM.org                      |
|    \\/     M anipulation  |                                                 |
\*---------------------------------------------------------------------------*/
/*   Windows 32 and 64 bit porting by blueCAPE: http://www.bluecape.com.pt   *\
|  Based on Windows porting (2.0.x v4) by Symscape: http://www.symscape.com   |
\*---------------------------------------------------------------------------*/
FoamFile
{
    version     2.0;
    format      ascii;
    class       volScalarField;
    location    "2.25";
    object      epsilon;
}
// * * * * * * * * * * * * * * * * * * * * * * * * * * * * * * * * * * * * * //

dimensions      [0 2 -3 0 0 0 0];

internalField   nonuniform List<scalar> 
400055
(
0.00224974
0.00352704
0.00388893
0.00394096
0.00389887
0.00384376
0.00381828
0.00383361
0.00387703
0.00392004
0.00394869
0.00396334
0.0039746
0.0039877
0.00399862
0.0039948
0.00397591
0.00395115
0.00392429
0.00389691
0.00387089
0.00385612
0.00386282
0.00389607
0.00394716
0.0039831
0.00392875
0.00356159
0.00228937
0.00228395
0.00315587
0.00346176
0.0035416
0.00355259
0.00355592
0.00357273
0.00359878
0.00362223
0.00363326
0.00363752
0.00364151
0.00364937
0.00365773
0.00366224
0.00365806
0.00364933
0.00364273
0.0036374
0.0036295
0.00361526
0.00359764
0.00358259
0.00357642
0.00357953
0.00357228
0.00349298
0.00318509
0.00233992
0.00283868
0.00364879
0.0039612
0.00406391
0.00409978
0.00412075
0.0041443
0.00416609
0.00418084
0.00418537
0.00418845
0.00419226
0.00419732
0.00420053
0.00420258
0.00420024
0.00419642
0.00419568
0.00419556
0.00419299
0.0041849
0.0041723
0.00415576
0.00413669
0.00411704
0.00408328
0.00397727
0.0036554
0.00288467
0.00334058
0.00402526
0.00431429
0.00441953
0.00446721
0.00449463
0.00451817
0.00453303
0.00453949
0.00453824
0.00453938
0.00454169
0.00454398
0.00454356
0.00454414
0.00454305
0.00454223
0.00454525
0.00454923
0.00455173
0.00455005
0.00454412
0.00453092
0.00450724
0.00447693
0.0044327
0.00432418
0.00401809
0.00337289
0.00379001
0.00435387
0.00461559
0.00471271
0.0047623
0.00478726
0.00480727
0.0048145
0.004814
0.00480856
0.00480831
0.0048095
0.00481025
0.00480816
0.00480805
0.00480753
0.00480812
0.00481292
0.00481918
0.00482506
0.00482827
0.00482849
0.00482054
0.00479691
0.00476518
0.0047214
0.00462365
0.00434027
0.00381139
0.00418784
0.00465694
0.00489797
0.00498356
0.00503061
0.00504953
0.00506731
0.0050681
0.00506215
0.00505361
0.00505197
0.00505207
0.005052
0.00504962
0.0050494
0.00504923
0.00505046
0.00505594
0.00506329
0.00507125
0.00507806
0.00508337
0.00508043
0.00505685
0.00502796
0.00498839
0.00490475
0.00464021
0.00419918
0.00454273
0.00494539
0.00517344
0.00524645
0.00528842
0.00530018
0.00531938
0.00531518
0.00530489
0.00529378
0.00529037
0.00528911
0.00528843
0.00528651
0.00528656
0.00528674
0.0052884
0.00529413
0.00530205
0.00531142
0.00532111
0.00533071
0.00533205
0.00530613
0.00528268
0.00524858
0.00517883
0.00492785
0.00454496
0.00486186
0.00522515
0.00544603
0.00550657
0.00554047
0.00554418
0.00556919
0.00556086
0.00554689
0.00553346
0.00552794
0.00552508
0.00552378
0.00552259
0.00552305
0.00552366
0.00552573
0.00553161
0.00553996
0.00555056
0.00556285
0.00557624
0.0055814
0.00554983
0.00553412
0.00550728
0.00545001
0.0052082
0.00485648
0.00514996
0.00549963
0.0057152
0.00576598
0.0057877
0.00578198
0.00581661
0.0058041
0.00578683
0.00577123
0.00576354
0.00575899
0.00575694
0.00575638
0.00575723
0.00575825
0.00576073
0.00576682
0.00577573
0.00578767
0.00580246
0.00581936
0.00582857
0.00578815
0.00578055
0.00576641
0.00572001
0.00548363
0.00513839
0.0054097
0.00577044
0.00597532
0.00602623
0.00603115
0.00601402
0.00605906
0.00604127
0.0060209
0.00600324
0.00599356
0.00598737
0.00598446
0.00598416
0.00598523
0.00598652
0.00598936
0.00599586
0.00600563
0.00601909
0.00603631
0.00605658
0.00607115
0.00602088
0.00601377
0.00602715
0.00599061
0.00575512
0.00539299
0.00564203
0.00603793
0.00621327
0.0266708
0.0265689
0.00625692
0.0265913
0.00626709
0.00624381
0.00622411
0.00621281
0.00620511
0.0062013
0.00620077
0.0062018
0.00620314
0.00620627
0.00621346
0.00622437
0.00623951
0.00625908
0.0265329
0.0266749
0.00626483
0.00621568
0.0266811
0.0265171
0.00602241
0.0056209
0.00584634
0.0267364
0.0285593
0.0287448
0.0285614
0.0283074
0.0280473
0.0278305
0.0276621
0.0275216
0.0274406
0.0273823
0.0273521
0.0273445
0.0273492
0.0273566
0.0273783
0.0274302
0.0275092
0.0276183
0.0277602
0.0279369
0.0281434
0.0283848
0.0285341
0.0287547
0.0285967
0.026645
0.00582141
0.00602702
0.0294271
0.0315958
0.0318463
0.0317335
0.0314887
0.0312446
0.0309993
0.0308035
0.030641
0.0305383
0.0304634
0.0304242
0.0304111
0.0304138
0.0304225
0.0304513
0.0305154
0.0306145
0.030749
0.0309228
0.0311321
0.0313708
0.0315943
0.0318013
0.0318627
0.0315554
0.0293374
0.00599939
0.0061716
0.0321598
0.0346256
0.0350442
0.0350032
0.0347725
0.0345139
0.0342435
0.0340202
0.0338353
0.03371
0.0336197
0.0335715
0.0335545
0.0335549
0.0335644
0.0336005
0.0336774
0.0337976
0.0339593
0.034167
0.0344106
0.0346779
0.0349119
0.0350959
0.0350699
0.0345795
0.0320729
0.0061428
0.0265093
0.0350381
0.037738
0.0383436
0.0383793
0.038164
0.0378901
0.0375934
0.0373411
0.0371319
0.036984
0.0368788
0.0368217
0.0368008
0.0367987
0.0368089
0.036852
0.0369424
0.037085
0.0372761
0.0375193
0.0377987
0.0380949
0.0383396
0.038497
0.0383802
0.0376893
0.034955
0.00625098
0.0285312
0.0379485
0.0409229
0.0417297
0.0418454
0.0416458
0.0413539
0.0410286
0.0407449
0.0405091
0.040339
0.0402196
0.0401542
0.0401294
0.0401252
0.0401357
0.0401852
0.0402895
0.0404556
0.0406775
0.0409567
0.0412726
0.0415993
0.0418578
0.0419886
0.0417781
0.0408727
0.0378683
0.0283586
0.0307941
0.0408701
0.0441771
0.0451971
0.0453976
0.0452135
0.0449007
0.0445428
0.044224
0.0439591
0.0437667
0.043634
0.0435621
0.0435343
0.0435285
0.0435387
0.0435938
0.0437122
0.0439022
0.0441554
0.0444708
0.0448246
0.0451847
0.0454597
0.0455644
0.0452567
0.0441263
0.0407888
0.0306369
0.0331144
0.0438287
0.0474973
0.0487417
0.049033
0.0488645
0.0485274
0.048132
0.0477736
0.0474766
0.0472618
0.0471175
0.0470409
0.0470116
0.0470046
0.047014
0.0470738
0.0472059
0.0474193
0.0477035
0.0480558
0.0484502
0.0488465
0.0491405
0.0492199
0.0488112
0.0474461
0.043739
0.0329794
0.035487
0.0468339
0.0508808
0.0523617
0.0527507
0.0525986
0.0522334
0.0517949
0.0513918
0.0510599
0.0508227
0.0506686
0.0505895
0.05056
0.0505521
0.0505603
0.0506239
0.0507683
0.0510035
0.0513186
0.0517099
0.052148
0.0525834
0.0528986
0.0529538
0.0524396
0.0508297
0.0467274
0.035373
0.0379079
0.0498839
0.0543261
0.0560567
0.0565515
0.0564167
0.0560196
0.0555317
0.0550787
0.0547093
0.0544501
0.0542878
0.0542081
0.0541795
0.0541715
0.0541781
0.054244
0.0543983
0.0546536
0.0550005
0.0554337
0.0559186
0.0563961
0.0567355
0.0567673
0.0561414
0.0542759
0.049755
0.0378079
0.0403749
0.052978
0.0578324
0.0598271
0.0604367
0.0603201
0.059887
0.0593437
0.0588358
0.0584268
0.0581459
0.057977
0.0578982
0.0578721
0.0578645
0.0578689
0.0579346
0.058096
0.0583705
0.0587507
0.0592283
0.0597632
0.0602869
0.0606546
0.0606631
0.0599178
0.0577848
0.0528255
0.0402772
0.0428886
0.0561168
0.0614005
0.0636745
0.0644075
0.0643102
0.0638368
0.0632323
0.0626655
0.062215
0.0619126
0.0617383
0.0616621
0.0616398
0.0616331
0.0616343
0.0616973
0.0618636
0.0621565
0.0625708
0.0630948
0.0636837
0.0642597
0.06466
0.0646443
0.0637709
0.0613577
0.0559434
0.0427782
0.0454513
0.0593022
0.0650324
0.0676004
0.0684651
0.0683872
0.0678695
0.0671988
0.0665696
0.0660761
0.0657523
0.0655738
0.0655018
0.0654845
0.0654791
0.0654761
0.0655345
0.0657041
0.0660141
0.066462
0.0670345
0.067683
0.0683182
0.0687553
0.0687141
0.0677037
0.064996
0.0591128
0.0453114
0.0480666
0.0625378
0.0687306
0.0716062
0.0726096
0.0725509
0.0719849
0.0712437
0.0705493
0.0700115
0.0696663
0.0694845
0.0694176
0.0694066
0.0694036
0.0693969
0.0694499
0.0696207
0.0699451
0.0704254
0.0710491
0.0717639
0.0724655
0.0729435
0.0728757
0.0717195
0.0687012
0.0623381
0.0478807
0.05074
0.0658282
0.0724987
0.0756937
0.076841
0.0768002
0.0761821
0.0753666
0.0746046
0.0740216
0.0736551
0.0734701
0.073409
0.0734059
0.0734079
0.0733994
0.0734468
0.073616
0.0739512
0.0744625
0.0751409
0.0759286
0.0767036
0.0772269
0.0771317
0.0758203
0.0724752
0.0656236
0.0504931
0.0534785
0.0691796
0.0763407
0.0798641
0.0811589
0.0811338
0.0804595
0.0795662
0.0787351
0.0781063
0.0777182
0.0775295
0.0774748
0.0774826
0.077494
0.0774868
0.0775281
0.077692
0.0780337
0.078575
0.0793109
0.0801772
0.0810326
0.0816064
0.0814828
0.0800073
0.0763205
0.0689739
0.053157
0.0562906
0.0725986
0.0802612
0.0841194
0.085563
0.0855504
0.0848156
0.0838417
0.0829406
0.0822659
0.0818552
0.081662
0.0816151
0.0816383
0.0816646
0.0816616
0.0816956
0.0818499
0.082194
0.0827637
0.0835588
0.0845089
0.0854521
0.0860813
0.0859282
0.0842814
0.0802408
0.0723936
0.0558822
0.0591862
0.076093
0.0842654
0.0884618
0.0900536
0.0900494
0.0892499
0.088193
0.0872217
0.086501
0.0860668
0.0858686
0.0858321
0.0858761
0.0859226
0.0859258
0.0859507
0.0860912
0.0864333
0.0870283
0.0878833
0.0889225
0.0899605
0.0906493
0.0904663
0.0886443
0.0842413
0.0758876
0.0586799
0.0621771
0.0796712
0.0883597
0.0928948
0.094632
0.0946314
0.093763
0.0926213
0.0915798
0.0908128
0.0903544
0.0901521
0.0901298
0.0902
0.0902708
0.0902814
0.0902948
0.0904171
0.0907518
0.0913683
0.0922838
0.0934169
0.0945557
0.095308
0.0950972
0.0930993
0.0883284
0.0794623
0.0615627
0.0652765
0.0833424
0.0925516
0.097423
0.0993014
0.0992985
0.0983569
0.0971283
0.0960162
0.0952027
0.0947205
0.0945166
0.0945134
0.0946146
0.0947128
0.0947308
0.0947298
0.0948282
0.0951494
0.0957838
0.0967607
0.0979916
0.0992353
0.100056
0.0998223
0.0976513
0.0925103
0.0831258
0.0645456
0.0684992
0.0871174
0.0968504
0.102053
0.104066
0.104054
0.103034
0.101715
0.100532
0.099672
0.0991683
0.0989672
0.0989882
0.0991247
0.0992523
0.0992767
0.0992567
0.0993248
0.0996264
0.100276
0.101315
0.102645
0.103998
0.104893
0.104645
0.102306
0.0967971
0.086888
0.0676455
0.071861
0.0910074
0.101267
0.106792
0.108932
0.108902
0.107795
0.106382
0.105126
0.104221
0.103701
0.103509
0.10356
0.103736
0.103894
0.103921
0.103876
0.103907
0.104184
0.104847
0.105947
0.107377
0.108841
0.10982
0.109568
0.107073
0.101201
0.09076
0.0708815
0.0753761
0.0950247
0.105813
0.11165
0.113904
0.113845
0.112642
0.111128
0.109797
0.108851
0.10832
0.108145
0.108233
0.108453
0.10864
0.108666
0.108589
0.108577
0.108826
0.109499
0.110656
0.112184
0.113765
0.114837
0.114597
0.11196
0.105735
0.0947535
0.0742721
0.0790373
0.0991825
0.110504
0.116637
0.118991
0.118887
0.117576
0.115953
0.114544
0.113561
0.113027
0.112879
0.113013
0.113279
0.113495
0.113513
0.113398
0.113338
0.113556
0.114234
0.115443
0.117066
0.118768
0.119948
0.11974
0.11698
0.110415
0.0988813
0.0778302
0.0827871
0.103497
0.115357
0.121765
0.124198
0.124031
0.122596
0.120852
0.119364
0.118348
0.117823
0.117713
0.117901
0.118218
0.118458
0.118463
0.118306
0.118196
0.118378
0.119055
0.120307
0.122022
0.12385
0.125154
0.125003
0.122145
0.115257
0.103158
0.081502
0.0866172
0.107985
0.120393
0.127048
0.129535
0.129282
0.127703
0.125826
0.124253
0.12321
0.122707
0.122649
0.122901
0.123269
0.123531
0.12352
0.123318
0.123154
0.123296
0.123962
0.125249
0.12705
0.129011
0.130461
0.130396
0.127468
0.120281
0.1076
0.0852708
0.0905235
0.112652
0.125636
0.132503
0.135011
0.134643
0.132897
0.130871
0.12921
0.128149
0.127681
0.12769
0.128012
0.128434
0.128717
0.128689
0.12844
0.128219
0.128313
0.128959
0.130268
0.132148
0.134252
0.135875
0.135929
0.132966
0.125513
0.11221
0.0891344
0.0945031
0.117471
0.131114
0.138149
0.140638
0.140121
0.138179
0.135985
0.134234
0.133163
0.132746
0.132835
0.133237
0.133715
0.134021
0.133973
0.133675
0.133393
0.133433
0.134045
0.135361
0.137317
0.139579
0.141403
0.141616
0.13866
0.13098
0.116967
0.0930932
0.0985555
0.122448
0.136855
0.14401
0.14643
0.145721
0.143549
0.14117
0.139326
0.138256
0.137907
0.138088
0.138578
0.139117
0.139446
0.139378
0.139028
0.138682
0.138658
0.13922
0.140528
0.142558
0.144993
0.147053
0.14747
0.144572
0.136712
0.121877
0.0971468
0.102681
0.127589
0.142839
0.150112
0.152402
0.151446
0.149009
0.146426
0.144487
0.143431
0.143165
0.143455
0.144041
0.144648
0.145
0.144908
0.144505
0.144089
0.14399
0.144484
0.145768
0.147869
0.150496
0.15283
0.153505
0.150725
0.142693
0.126945
0.101293
0.10688
0.132903
0.14904
0.156485
0.158568
0.157303
0.154558
0.151751
0.14972
0.148692
0.148528
0.148941
0.149637
0.150315
0.15069
0.150574
0.150114
0.149621
0.14943
0.149835
0.151081
0.153251
0.156091
0.158742
0.159732
0.157144
0.14889
0.132179
0.105528
0.111153
0.138398
0.155465
0.163151
0.164943
0.163296
0.160197
0.157148
0.155028
0.154044
0.154003
0.154559
0.155376
0.156131
0.156529
0.156386
0.155864
0.155283
0.154982
0.155277
0.156464
0.158704
0.161779
0.164792
0.166166
0.163847
0.155305
0.137587
0.10985
0.115502
0.144083
0.16212
0.17013
0.171544
0.169429
0.165927
0.162618
0.160413
0.159494
0.1596
0.160318
0.161271
0.162109
0.162532
0.162359
0.161767
0.161083
0.160651
0.16081
0.16192
0.164227
0.167563
0.170987
0.172821
0.170846
0.161943
0.143179
0.114253
0.119925
0.149964
0.169007
0.17733
0.178379
0.175711
0.171752
0.168162
0.165881
0.16505
0.16533
0.166234
0.167337
0.168269
0.168721
0.168512
0.167838
0.167033
0.166444
0.166437
0.167448
0.169822
0.173443
0.177333
0.179708
0.178053
0.168808
0.148963
0.118724
0.12442
0.156043
0.176124
0.184739
0.185447
0.182148
0.177675
0.173785
0.171438
0.170722
0.171206
0.17232
0.173596
0.174634
0.175118
0.174867
0.174096
0.173146
0.172369
0.172163
0.173053
0.175492
0.179424
0.183834
0.186819
0.185456
0.175898
0.154944
0.123243
0.128983
0.162317
0.183467
0.192349
0.192785
0.188745
0.183701
0.179492
0.177092
0.176519
0.17724
0.178596
0.180069
0.181229
0.181747
0.181446
0.180559
0.179437
0.178435
0.177996
0.178741
0.181241
0.185506
0.19049
0.194192
0.193046
0.183209
0.161118
0.127784
0.133602
0.168777
0.191028
0.200145
0.200277
0.195486
0.189831
0.185287
0.182848
0.18245
0.183447
0.185078
0.186775
0.188073
0.188627
0.188267
0.187245
0.185917
0.184655
0.183945
0.18452
0.187072
0.19169
0.197276
0.201692
0.200808
0.190729
0.167476
0.132315
0.138265
0.175411
0.19879
0.208111
0.207889
0.202354
0.196059
0.191167
0.188709
0.188519
0.189829
0.19177
0.193712
0.195161
0.195752
0.195324
0.194146
0.192586
0.191032
0.190017
0.190393
0.192986
0.197967
0.204181
0.209297
0.208727
0.198436
0.174007
0.136809
0.142953
0.182199
0.206737
0.216227
0.215597
0.209375
0.202345
0.197116
0.19466
0.194706
0.196358
0.19864
0.200861
0.202484
0.203121
0.202613
0.201251
0.199418
0.197539
0.196191
0.196348
0.198962
0.20429
0.211237
0.216982
0.216778
0.206308
0.180699
0.141246
0.147643
0.189121
0.214846
0.224468
0.223374
0.216456
0.208658
0.20308
0.200648
0.200976
0.203027
0.205702
0.208252
0.210083
0.210778
0.210176
0.208594
0.206436
0.204181
0.202445
0.202344
0.204953
0.210638
0.218318
0.22472
0.224936
0.214321
0.18754
0.145613
0.152311
0.196149
0.223088
0.232804
0.23119
0.223526
0.214993
0.209037
0.206662
0.207335
0.209864
0.213007
0.215887
0.217908
0.218648
0.217949
0.216158
0.213693
0.210995
0.208796
0.208376
0.210944
0.217014
0.225373
0.232476
0.233173
0.222453
0.194513
0.149907
0.156927
0.203256
0.231435
0.241205
0.239009
0.230546
0.221354
0.214978
0.212705
0.213818
0.216831
0.220409
0.223627
0.225849
0.226639
0.225842
0.223831
0.221037
0.217926
0.215287
0.214456
0.216927
0.223381
0.232359
0.240216
0.241462
0.230675
0.201589
0.154139
0.161456
0.210406
0.239852
0.249633
0.24679
0.237472
0.227598
0.220922
0.218793
0.22031
0.223819
0.227862
0.231441
0.233876
0.234723
0.233833
0.231594
0.228446
0.224891
0.221782
0.220565
0.2229
0.229615
0.23923
0.247902
0.249773
0.238952
0.208729
0.158325
0.165861
0.21756
0.2483
0.258044
0.254485
0.244253
0.233673
0.226725
0.224773
0.226747
0.230798
0.235339
0.239296
0.241956
0.242874
0.241899
0.239423
0.235899
0.231865
0.228235
0.226571
0.228715
0.235662
0.245935
0.255492
0.258067
0.247243
0.215879
0.162486
0.1701
0.224672
0.256729
0.266387
0.262039
0.250834
0.239525
0.232329
0.230608
0.2331
0.237742
0.242808
0.247159
0.250058
0.251061
0.25001
0.247291
0.24337
0.238816
0.234609
0.232432
0.234318
0.241464
0.252422
0.262935
0.266294
0.255502
0.22297
0.166628
0.174122
0.231685
0.265082
0.274598
0.269385
0.257147
0.245092
0.237681
0.236261
0.239339
0.244622
0.250238
0.254996
0.258146
0.259248
0.258129
0.255163
0.250822
0.245708
0.240866
0.2381
0.239653
0.246958
0.258625
0.270163
0.27439
0.263675
0.229919
0.170727
0.177868
0.238528
0.273284
0.282601
0.276443
0.263115
0.250307
0.242734
0.241697
0.245437
0.251406
0.257598
0.262774
0.266186
0.267398
0.266217
0.262999
0.258215
0.252499
0.246963
0.243526
0.244659
0.252077
0.264465
0.277093
0.282277
0.271694
0.236625
0.174704
0.181268
0.245119
0.281247
0.290302
0.283121
0.268649
0.255099
0.247433
0.246879
0.251361
0.258065
0.264853
0.270456
0.274136
0.275466
0.27423
0.270754
0.265502
0.259147
0.252856
0.248659
0.249276
0.256744
0.269849
0.283626
0.289861
0.27948
0.242981
0.178422
0.184243
0.251365
0.288872
0.297599
0.289311
0.273654
0.259391
0.251727
0.251768
0.25708
0.264567
0.271969
0.278001
0.281951
0.283405
0.282118
0.278374
0.272635
0.265606
0.258498
0.253449
0.253444
0.260878
0.274681
0.289658
0.297031
0.286941
0.248887
0.181703
0.186713
0.257172
0.296053
0.304373
0.294894
0.278023
0.263104
0.255561
0.256325
0.262562
0.270878
0.278905
0.285362
0.289582
0.291165
0.289827
0.285807
0.279568
0.271834
0.263848
0.257855
0.257109
0.264401
0.27886
0.295072
0.303665
0.293978
0.254279
0.18436
0.188601
0.262456
0.30268
0.310498
0.299743
0.281649
0.266156
0.258879
0.260514
0.267772
0.276956
0.285613
0.29249
0.296979
0.298693
0.297303
0.293006
0.286257
0.277788
0.268871
0.261842
0.260221
0.26724
0.282283
0.29974
0.309627
0.300482
0.259139
0.186244
0.189856
0.26716
0.308651
0.315846
0.303726
0.284418
0.268467
0.261629
0.264296
0.272672
0.282758
0.292044
0.299336
0.304091
0.305936
0.304497
0.299924
0.292655
0.283428
0.273536
0.26538
0.262735
0.269322
0.28484
0.303525
0.314781
0.306352
0.263507
0.187315
0.19048
0.271273
0.313885
0.320289
0.306712
0.28622
0.269958
0.263763
0.267634
0.27722
0.288236
0.298153
0.305854
0.310872
0.312845
0.311361
0.30651
0.298714
0.288716
0.277813
0.268441
0.264618
0.270578
0.286416
0.306291
0.318992
0.3115
0.267464
0.18772
0.190578
0.274876
0.318339
0.323709
0.30857
0.286945
0.27056
0.265241
0.270492
0.281375
0.293345
0.303893
0.311999
0.317276
0.319379
0.317849
0.312716
0.30439
0.29362
0.281679
0.271009
0.265842
0.270945
0.286904
0.307901
0.322149
0.315861
0.271131
0.187856
0.19047
0.278213
0.322042
0.326008
0.309173
0.286494
0.270216
0.266035
0.272843
0.2851
0.298042
0.30922
0.317731
0.323268
0.3255
0.323919
0.318501
0.309653
0.298117
0.285119
0.273082
0.266397
0.270371
0.286202
0.308231
0.324164
0.319421
0.274708
0.188404
0.190869
0.281831
0.325131
0.327112
0.308409
0.28479
0.268894
0.266136
0.27467
0.288363
0.30229
0.314099
0.323021
0.328823
0.331178
0.329538
0.323836
0.314482
0.302189
0.288131
0.274669
0.266281
0.268827
0.284233
0.307177
0.324984
0.322278
0.278577
0.190317
0.19315
0.286764
0.327876
0.326992
0.306194
0.281783
0.266593
0.265561
0.275981
0.291149
0.306063
0.318508
0.327852
0.333921
0.336389
0.334683
0.328704
0.318859
0.305829
0.290724
0.275786
0.265514
0.266314
0.280955
0.30467
0.324602
0.324734
0.283501
0.1948
0.19836
0.294374
0.330659
0.325669
0.302489
0.277469
0.263355
0.264364
0.276806
0.293465
0.30936
0.322446
0.33222
0.33855
0.341114
0.339341
0.333098
0.322779
0.309047
0.292917
0.276467
0.264155
0.262883
0.276385
0.300688
0.32309
0.327347
0.290569
0.202043
0.203286
0.303431
0.333811
0.323298
0.297364
0.271921
0.259283
0.262644
0.27721
0.295345
0.312201
0.325929
0.33613
0.342701
0.345339
0.343502
0.337016
0.326257
0.311869
0.294744
0.276773
0.262305
0.258655
0.270617
0.295317
0.320651
0.330718
0.298442
0.207248
0.202755
0.308704
0.336915
0.320454
0.291113
0.265323
0.254563
0.260546
0.277284
0.29685
0.314632
0.328987
0.339595
0.346379
0.34906
0.347152
0.340459
0.32932
0.314334
0.296257
0.276799
0.260116
0.253829
0.263851
0.28888
0.317864
0.334484
0.303006
0.20477
0.192609
0.306402
0.337882
0.318256
0.284461
0.258022
0.24947
0.258269
0.277152
0.298071
0.316723
0.331666
0.34264
0.349598
0.35228
0.350254
0.343381
0.331976
0.316492
0.297541
0.276677
0.257797
0.248692
0.256447
0.28218
0.315674
0.335943
0.301414
0.192852
0.177749
0.294732
0.334155
0.31626
0.278845
0.250567
0.244386
0.256062
0.276973
0.299126
0.318549
0.333959
0.34522
0.352343
0.355003
0.352797
0.345723
0.33414
0.318354
0.298711
0.276579
0.255615
0.243642
0.248979
0.276764
0.313487
0.331923
0.290334
0.176918
0.162737
0.278038
0.324533
0.312315
0.275188
0.243827
0.239808
0.254239
0.276953
0.300151
0.320089
0.335794
0.347321
0.354609
0.357227
0.354814
0.347525
0.335756
0.319826
0.299832
0.276724
0.253903
0.239214
0.242333
0.273461
0.309367
0.321649
0.274157
0.161361
0.149271
0.260815
0.308457
0.305029
0.272041
0.23918
0.236343
0.253187
0.277341
0.301133
0.321237
0.337195
0.348994
0.356399
0.358954
0.356363
0.348887
0.336926
0.32087
0.300812
0.277301
0.253061
0.236068
0.237881
0.270527
0.302021
0.305086
0.257305
0.147746
0.136462
0.243803
0.28952
0.292814
0.267468
0.237585
0.234672
0.253355
0.278151
0.30186
0.322034
0.338262
0.350249
0.357706
0.360198
0.357477
0.349873
0.337782
0.321575
0.301538
0.278248
0.253516
0.234924
0.236572
0.26593
0.289638
0.285952
0.240551
0.134967
0.12395
0.226576
0.269963
0.275826
0.261087
0.237373
0.235523
0.254866
0.279047
0.302377
0.322629
0.33899
0.351063
0.358517
0.360956
0.358152
0.350479
0.338362
0.32213
0.302059
0.279184
0.255177
0.236437
0.236684
0.259374
0.272524
0.26638
0.223489
0.122569
0.11177
0.208901
0.250266
0.256807
0.251216
0.235918
0.239091
0.257036
0.280086
0.302938
0.323041
0.339362
0.351406
0.358808
0.361212
0.35837
0.350704
0.338661
0.322561
0.302668
0.280236
0.257319
0.240309
0.235386
0.249264
0.253413
0.246729
0.205957
0.110534
0.100034
0.190892
0.230244
0.237848
0.237209
0.232417
0.24241
0.259985
0.281632
0.303679
0.323336
0.339395
0.351288
0.358597
0.360985
0.358163
0.350584
0.338716
0.322946
0.303514
0.281892
0.260305
0.243382
0.231704
0.234993
0.234421
0.226801
0.188099
0.0989477
0.0888424
0.172686
0.209861
0.219032
0.22108
0.227246
0.242106
0.262527
0.283955
0.304871
0.323727
0.339271
0.350884
0.358061
0.360472
0.357739
0.350309
0.338724
0.323528
0.304858
0.2843
0.262717
0.242471
0.226073
0.218585
0.215577
0.206534
0.170041
0.0878909
0.078234
0.154182
0.188959
0.199875
0.204734
0.217686
0.237395
0.261778
0.285045
0.30595
0.324372
0.339437
0.350669
0.357704
0.360226
0.357645
0.350375
0.339156
0.324303
0.30597
0.285226
0.26157
0.237225
0.216293
0.202006
0.196438
0.185755
0.151678
0.0773936
0.0684328
0.1353
0.167378
0.180013
0.187965
0.203434
0.228695
0.255737
0.281226
0.303634
0.32258
0.337733
0.348915
0.356023
0.358681
0.356092
0.348773
0.337586
0.322444
0.303466
0.281105
0.255226
0.228214
0.201938
0.185187
0.176703
0.16431
0.133011
0.067704
0.0602594
0.116746
0.145079
0.159071
0.169901
0.186505
0.215091
0.243746
0.270623
0.294179
0.313776
0.329274
0.340683
0.347987
0.35069
0.347963
0.340512
0.329071
0.313528
0.29382
0.27027
0.243094
0.214202
0.184911
0.167138
0.155904
0.142216
0.114901
0.0596335
0.0534361
0.100269
0.122893
0.136685
0.149808
0.167706
0.194439
0.224214
0.252075
0.275727
0.295366
0.310788
0.322089
0.329315
0.331944
0.329248
0.321961
0.310581
0.295079
0.275289
0.251616
0.223445
0.193344
0.165918
0.147144
0.133769
0.120586
0.098755
0.0528888
0.0472424
0.0848268
0.102449
0.11487
0.127159
0.145311
0.169375
0.196179
0.221979
0.245449
0.264601
0.279404
0.290096
0.29684
0.299183
0.296677
0.28996
0.279183
0.264263
0.244935
0.22144
0.195457
0.168353
0.143674
0.125017
0.112659
0.100573
0.0835937
0.0467618
0.0412137
0.0699706
0.0829373
0.0935135
0.104576
0.118896
0.139703
0.162941
0.185571
0.205592
0.221917
0.2345
0.243561
0.249289
0.251489
0.249594
0.243934
0.234741
0.221913
0.20532
0.185215
0.162379
0.138894
0.117575
0.102922
0.0918492
0.0814573
0.06899
0.0407942
0.0350304
0.0555551
0.0642609
0.0725886
0.0817487
0.0925169
0.106011
0.124495
0.142637
0.159019
0.172285
0.18247
0.189795
0.194462
0.19638
0.194954
0.190416
0.182982
0.172522
0.158986
0.142532
0.124119
0.105476
0.0915718
0.0805202
0.071396
0.0631527
0.0548142
0.0346526
0.0286013
0.0414767
0.0466745
0.0526265
0.0594987
0.0671879
0.0760599
0.0869747
0.0976098
0.108551
0.117897
0.125102
0.130352
0.133782
0.135278
0.134276
0.131017
0.125699
0.118251
0.108671
0.09771
0.086634
0.0757622
0.0665713
0.0586426
0.0518443
0.0459122
0.0409875
0.0283827
0.00614396
0.0285413
0.0305273
0.0343215
0.0389095
0.0434707
0.0485451
0.0551059
0.0599655
0.0660066
0.0708043
0.0745884
0.0774672
0.0794976
0.0805094
0.0799687
0.0780923
0.0751725
0.0712078
0.0662578
0.0613464
0.0547038
0.0486781
0.0431581
0.0383861
0.0339026
0.0300823
0.0282966
0.0061344
0.00814829
0.00852963
0.00894803
0.00985423
0.0109461
0.0115947
0.012328
0.0132993
0.0117549
0.0122789
0.0128562
0.0133121
0.0136711
0.013934
0.0140644
0.0139957
0.0137617
0.0134063
0.0129339
0.0124215
0.0136112
0.0131329
0.0125045
0.0115673
0.0108605
0.00979697
0.00886926
0.00849946
0.0081537
0.00280252
0.00470441
0.0051997
0.00522377
0.00513819
0.00506109
0.00503363
0.00505329
0.00509715
0.00513586
0.00516355
0.00518568
0.00521079
0.00523744
0.00525584
0.00524932
0.00522284
0.0051924
0.00516151
0.0051275
0.00509028
0.00506299
0.00506349
0.00510634
0.00519059
0.00527862
0.00525341
0.00473933
0.00281567
0.00113535
0.00506267
0.00559012
0.00553682
0.00542577
0.00536258
0.00535065
0.00536571
0.00538875
0.00540481
0.00542018
0.0054392
0.00546281
0.00548284
0.00549222
0.00548398
0.00546394
0.00544359
0.00542556
0.00540829
0.0053898
0.0053752
0.00537248
0.00539537
0.00546237
0.00557046
0.00561103
0.00506019
0.00113112
0.00562364
0.00591319
0.00619378
0.00618828
0.0061367
0.00611476
0.00612038
0.00613305
0.00614548
0.00615177
0.00616224
0.00617709
0.00619415
0.00620606
0.00621106
0.00620521
0.00619322
0.00618339
0.00617678
0.00617167
0.00616515
0.00615788
0.00614923
0.00614522
0.0061628
0.00620754
0.00619675
0.00588604
0.00552495
0.00668561
0.00649836
0.00666827
0.00672196
0.00672767
0.00673519
0.00674763
0.00675189
0.00675281
0.00674948
0.0067536
0.00676234
0.00677224
0.00677727
0.00677928
0.00677523
0.00676906
0.0067676
0.00677151
0.00677809
0.00678368
0.0067873
0.0067806
0.00676302
0.00674431
0.0067316
0.00666359
0.00646082
0.00654219
0.00814187
0.00706637
0.00720582
0.00730193
0.00733513
0.00734259
0.00734637
0.00733392
0.00732337
0.00731284
0.0073125
0.00731719
0.00732318
0.00732468
0.00732508
0.00732177
0.00731853
0.00732131
0.00733112
0.00734469
0.00735955
0.00737777
0.00738036
0.00736646
0.00734101
0.00730438
0.00720121
0.00703317
0.00799349
0.00962067
0.00767843
0.00783906
0.00797536
0.00802141
0.008009
0.00800183
0.00796493
0.00794414
0.00792871
0.00792531
0.0079272
0.00793141
0.00793139
0.00793113
0.00792846
0.00792692
0.00793132
0.00794331
0.00796017
0.00798263
0.00802288
0.0080359
0.00802856
0.00801361
0.00797266
0.00784109
0.00765268
0.0094855
0.0111133
0.00838196
0.00861218
0.0088002
0.00885576
0.00880214
0.00879552
0.00871653
0.00868533
0.00866591
0.00865959
0.00865869
0.00866196
0.00866141
0.00866129
0.00865968
0.0086595
0.00866427
0.00867671
0.0086957
0.00872675
0.0088085
0.00883086
0.0088183
0.00882762
0.00879586
0.00863226
0.00835937
0.0109964
0.012633
0.00922402
0.00957733
0.00984884
0.00991899
0.0097853
0.0098173
0.00965491
0.00961151
0.00958802
0.0095779
0.00957352
0.00957593
0.00957582
0.00957658
0.00957638
0.00957739
0.00958219
0.00959531
0.00961724
0.00965988
0.00982756
0.00985713
0.00980026
0.00985166
0.00984655
0.00963899
0.00920043
0.0125338
0.0141921
0.0102689
0.010805
0.0112373
0.0113329
0.0110361
0.0112013
0.0108643
0.0108061
0.0107777
0.0107619
0.010753
0.010754
0.0107557
0.0107579
0.010759
0.0107613
0.0107668
0.0107824
0.010809
0.010867
0.0112161
0.0112498
0.0110525
0.0111726
0.0112392
0.010962
0.0102419
0.0141071
0.0158026
0.0116099
0.0123877
0.01317
0.013308
0.0126693
0.0131734
0.0124652
0.0123913
0.0123568
0.0123326
0.0123183
0.0123166
0.0123211
0.0123245
0.0123268
0.0123309
0.0123392
0.0123601
0.0123933
0.0124685
0.0131994
0.0132338
0.0126895
0.0129055
0.0131756
0.0127765
0.0115777
0.0157277
0.0174775
0.0133924
0.014436
0.0159848
0.0162089
0.0148509
0.0161423
0.0146451
0.0145637
0.0145213
0.014487
0.0144657
0.0144593
0.0144645
0.0144684
0.0144718
0.0144795
0.0144942
0.0145239
0.0145661
0.0146527
0.0161815
0.0162142
0.0148807
0.0151918
0.0159917
0.0153849
0.0133517
0.0174091
0.0192332
0.0158195
0.0166599
0.0173839
0.0176825
0.0177346
0.0177652
0.0176683
0.0176067
0.017553
0.0175085
0.0174783
0.0174641
0.0174638
0.0174673
0.0174725
0.0174864
0.0175125
0.0175553
0.0176104
0.0176797
0.0177945
0.0178407
0.0177982
0.0177009
0.017389
0.0166484
0.0157612
0.0191684
0.0210919
0.0169586
0.0178537
0.0186715
0.0190334
0.0191562
0.0191624
0.0191107
0.0190451
0.0189845
0.018935
0.0189004
0.018883
0.0188795
0.0188824
0.0188886
0.0189061
0.0189389
0.0189891
0.0190529
0.0191298
0.0192058
0.0192569
0.0192388
0.0190908
0.018682
0.0178163
0.0168911
0.0210288
0.0230881
0.0180669
0.0190252
0.0199492
0.0203652
0.0205093
0.0205164
0.0204599
0.0203859
0.0203169
0.0202617
0.0202236
0.0202042
0.0201993
0.0202021
0.0202088
0.0202287
0.0202664
0.0203238
0.0203975
0.0204855
0.0205719
0.0206308
0.0206099
0.020434
0.019966
0.0189893
0.0179927
0.023024
0.0252959
0.0191773
0.020217
0.0212453
0.021716
0.021879
0.0218837
0.0218183
0.0217335
0.0216549
0.0215933
0.0215521
0.0215319
0.0215273
0.0215301
0.0215367
0.021558
0.0215998
0.0216647
0.0217485
0.0218481
0.0219471
0.022016
0.0219959
0.0217951
0.0212681
0.0201842
0.0190985
0.0252244
0.0275236
0.0203023
0.0214331
0.0225658
0.0230941
0.0232757
0.0232771