/*--------------------------------*- C++ -*----------------------------------*\
| =========                 |                                                 |
| \\      /  F ield         | OpenFOAM: The Open Source CFD Toolbox           |
|  \\    /   O peration     | Version:  5.x                                   |
|   \\  /    A nd           | Web:      www.OpenFOAM.org                      |
|    \\/     M anipulation  |                                                 |
\*---------------------------------------------------------------------------*/
/*   Windows 32 and 64 bit porting by blueCAPE: http://www.bluecape.com.pt   *\
|  Based on Windows porting (2.0.x v4) by Symscape: http://www.symscape.com   |
\*---------------------------------------------------------------------------*/
FoamFile
{
    version     2.0;
    format      ascii;
    class       volScalarField;
    location    "4.95";
    object      epsilon;
}
// * * * * * * * * * * * * * * * * * * * * * * * * * * * * * * * * * * * * * //

dimensions      [0 2 -3 0 0 0 0];

internalField   nonuniform List<scalar> 
400055
(
0.00829601
0.00934266
0.00982965
0.0100662
0.0101171
0.0100192
0.00983993
0.00957497
0.00924777
0.00893176
0.00858784
0.00806955
0.0072749
0.00618919
0.00565298
0.00669781
0.00769029
0.0083402
0.00879119
0.00920121
0.00953143
0.00985592
0.0101143
0.0102971
0.0103773
0.010313
0.010071
0.00959022
0.00860022
0.00537425
0.0282256
0.0279514
0.0292262
0.0296832
0.029451
0.0287927
0.0277229
0.00625406
0.00617663
0.0062494
0.00600135
0.0054659
0.00477188
0.00446639
0.00505748
0.00571023
0.00607888
0.0061259
0.0269758
0.0276089
0.028983
0.0300266
0.0307227
0.0308917
0.0303219
0.0289444
0.0288699
0.00555684
0.00514284
0.0280212
0.0282847
0.0302998
0.0313625
0.0315484
0.0311058
0.030116
0.0287209
0.0272907
0.0267404
0.0264635
0.00580216
0.00516675
0.00490071
0.005402
0.0059942
0.026572
0.026733
0.0285871
0.0300797
0.0315064
0.0324877
0.0329408
0.0326842
0.0314887
0.0291433
0.0266714
0.00531749
0.00490851
0.0269924
0.0279996
0.0306762
0.0323205
0.0329778
0.0328461
0.032016
0.0306251
0.0288839
0.0270826
0.00619243
0.0059333
0.00540518
0.00518664
0.0056105
0.0061376
0.0274626
0.0280659
0.0303174
0.032102
0.0335221
0.0343429
0.0344585
0.0337225
0.0319505
0.0289749
0.00616674
0.00507658
0.0047316
0.00625232
0.0274783
0.0306479
0.0327624
0.0338454
0.034032
0.033388
0.0320297
0.0301104
0.0277513
0.0268118
0.00600368
0.00554966
0.00537458
0.00573618
0.0062074
0.0280475
0.029174
0.0316793
0.0336154
0.0349807
0.0356004
0.0353739
0.034201
0.0319539
0.0285075
0.00605264
0.00486553
0.00458102
0.00617366
0.0268954
0.0304465
0.0329142
0.0343295
0.0347809
0.0343045
0.0329941
0.0309795
0.0282763
0.0264648
0.0060195
0.0056317
0.00549338
0.00580172
0.00620448
0.0272567
0.0299812
0.0326543
0.0346589
0.0359514
0.0363847
0.0358741
0.0343608
0.0317677
0.0280076
0.00614252
0.00469792
0.00445394
0.00610669
0.00626191
0.0302226
0.0329357
0.0345771
0.0352139
0.0348616
0.0335965
0.0315343
0.0286427
0.0264875
0.00601472
0.00567253
0.00556325
0.00583313
0.00619825
0.0271681
0.0305082
0.0332818
0.0353096
0.0365346
0.0368271
0.0361169
0.0343727
0.0315482
0.0275453
0.00614781
0.00456188
0.00434642
0.00606149
0.0275968
0.0301444
0.0329379
0.0346981
0.0354334
0.0351502
0.0339151
0.0318305
0.0288332
0.0264779
0.0060014
0.00568541
0.00559694
0.00583818
0.00617798
0.0271774
0.0307945
0.0336213
0.0356506
0.0368285
0.0370394
0.0362215
0.034352
0.0313927
0.0272103
0.00613615
0.00444851
0.00425473
0.00603542
0.0266839
0.0301325
0.0329828
0.0347702
0.0355201
0.0352486
0.0340205
0.0319248
0.0288693
0.00625743
0.00597792
0.00567799
0.00560355
0.00582499
0.00615209
0.0271385
0.0308865
0.0337354
0.0357593
0.0369183
0.0371101
0.0362728
0.0343731
0.031357
0.0270378
0.00613305
0.00435197
0.00417793
0.00603953
0.0264841
0.0302872
0.0331199
0.0348508
0.0355376
0.0352221
0.033974
0.031868
0.0287754
0.00623883
0.00594929
0.00565623
0.00558959
0.00579845
0.00612035
0.027025
0.0308295
0.0336821
0.0357036
0.0368759
0.0371089
0.0363332
0.034487
0.0314774
0.0270506
0.00614962
0.00426977
0.00411488
0.00607434
0.0267189
0.0306401
0.0333866
0.0349855
0.0355382
0.0351255
0.0338277
0.0317043
0.0285915
0.00621543
0.00591554
0.00562383
0.00555978
0.00576138
0.00608145
0.0268384
0.0306633
0.0335122
0.0355417
0.0367615
0.0370926
0.0364516
0.0347332
0.0317828
0.0272713
0.00619102
0.00420048
0.00406393
0.00613866
0.0271831
0.0311993
0.0338146
0.0352135
0.0355665
0.0350053
0.033626
0.0314718
0.028346
0.00624319
0.00588516
0.00558445
0.00551781
0.00571626
0.00603636
0.0265817
0.0304194
0.0332687
0.0353233
0.0366264
0.0371102
0.0366713
0.0351478
0.0323021
0.0277257
0.00625414
0.00414094
0.00402182
0.00622556
0.0278486
0.031981
0.034436
0.0355728
0.0356633
0.0349026
0.033407
0.0312033
0.0280621
0.00623241
0.00585138
0.00553968
0.00546672
0.00566653
0.0059928
0.00626103
0.0301145
0.0329882
0.0350909
0.0365158
0.0372064
0.0370341
0.0357688
0.0330659
0.0284333
0.00624869
0.00406176
0.00395802
0.00623411
0.0287564
0.0330163
0.0352879
0.0361033
0.0358685
0.0348554
0.0332049
0.0309277
0.027766
0.00620391
0.00581358
0.00549052
0.00540885
0.00561487
0.00595889
0.0264942
0.029765
0.0327022
0.0348821
0.0364716
0.0374251
0.0375845
0.0366394
0.0341145
0.0294067
0.0264768
0.00399865
0.00392969
0.00617621
0.0298973
0.0343518
0.0364159
0.0368494
0.0362234
0.0349001
0.0330508
0.0306703
0.0274761
0.00616694
0.00577235
0.0054377
0.00534589
0.00556082
0.00592315
0.0266354
0.0294422
0.0324391
0.0347317
0.0365341
0.0378119
0.0383715
0.03781
0.0354969
0.0306969
0.0267904
0.00394293
0.00390616
0.00626319
0.0314073
0.0360465
0.0378747
0.0378622
0.0367724
0.0350741
0.0329752
0.0304542
0.0272069
0.00612631
0.00572857
0.00538193
0.00527944
0.005506
0.00588533
0.0266098
0.0291371
0.0322246
0.0346732
0.0367448
0.0384157
0.0394507
0.0393394
0.0372678
0.0322746
0.0268134
0.00392014
0.00388701
0.0273619
0.0333316
0.0381676
0.0397281
0.0391998
0.0375651
0.0354173
0.0330084
0.0303009
0.0270036
0.00608589
0.00568348
0.00532405
0.00521093
0.0054524
0.00585052
0.0265152
0.0288785
0.0320846
0.034741
0.0371477
0.0392909
0.0408852
0.0412952
0.039497
0.0343436
0.026826
0.0038661
0.00383959
0.0276998
0.0357517
0.0407866
0.0420477
0.0409279
0.038657
0.0359732
0.0331825
0.0302323
0.0268642
0.0060484
0.00563862
0.00526515
0.00514171
0.00540097
0.00581974
0.0062646
0.0287155
0.0320461
0.0349716
0.037791
0.0404978
0.0427453
0.043752
0.0422496
0.0368324
0.0274211
0.00383316
0.00381776
0.0285105
0.038629
0.0439745
0.04491
0.0431189
0.0401097
0.0367903
0.0335327
0.0302725
0.0267941
0.00601646
0.00559589
0.00520665
0.00507329
0.00535322
0.00579545
0.00625498
0.0286498
0.0321381
0.0354052
0.0387282
0.042103
0.0451078
0.0467899
0.0456035
0.0398379
0.0286266
0.00382565
0.00382647
0.0299459
0.0420525
0.0478019
0.0483936
0.0458497
0.0419912
0.037923
0.0340989
0.030451
0.0268091
0.00599316
0.00555782
0.00515056
0.00500759
0.00531075
0.00577914
0.00625472
0.0286953
0.0323935
0.0360871
0.0400185
0.044179
0.0480533
0.0504895
0.0496305
0.0434268
0.0303783
0.00385227
0.00387064
0.0319771
0.0460879
0.0523352
0.0525758
0.0492005
0.0443749
0.039432
0.0349273
0.0308035
0.0269336
0.00598243
0.00552783
0.00509981
0.00494737
0.00527584
0.00577235
0.00626593
0.0288727
0.0328497
0.0370684
0.0417277
0.0468031
0.0516643
0.0549295
0.0543966
0.0476521
0.0326431
0.00391704
0.00395484
0.0345504
0.0507851
0.0576355
0.0575313
0.0532519
0.0473391
0.0413848
0.0360717
0.0313735
0.0271977
0.00598944
0.00551094
0.00505902
0.00489698
0.00525198
0.00577503
0.026537
0.0292181
0.0335524
0.038408
0.0439276
0.0500563
0.0560232
0.0601847
0.0599626
0.0525603
0.0354118
0.00402152
0.00407928
0.0376498
0.0561873
0.06376
0.0633317
0.058085
0.0509659
0.0438566
0.0375947
0.0322158
0.0276387
0.00602124
0.00551474
0.00503577
0.00486389
0.00524608
0.00579266
0.0267415
0.02977
0.0345568
0.0401732
0.0466968
0.0540221
0.0612107
0.066326
0.0663852
0.0581942
0.0386849
0.00416671
0.00424414
0.0412702
0.0623355
0.0707642
0.0700465
0.0637806
0.0553414
0.0469302
0.0395698
0.0333856
0.0283029
0.00608712
0.00555081
0.00504265
0.00486106
0.00527059
0.00583252
0.0268624
0.030607
0.0359307
0.0424417
0.0501204
0.0587868
0.0673069
0.0734217
0.0737193
0.0645954
0.0424707
0.00435295
0.0044493
0.0454164
0.0692717
0.0787051
0.0777457
0.0704207
0.0605563
0.0506979
0.0420831
0.0349508
0.0292521
0.00619311
0.00563522
0.00510006
0.00491017
0.0053465
0.00592271
0.0273826
0.0317659
0.0377556
0.0453034
0.0542916
0.0644402
0.074392
0.0815403
0.0820215
0.0718066
0.0467841
0.00457976
0.00469388
0.050101
0.0770409
0.0876437
0.0865025
0.0780911
0.066707
0.0552623
0.0452368
0.0370022
0.030612
0.0266747
0.00578026
0.00523794
0.0050447
0.00550186
0.00607377
0.028326
0.0333483
0.040131
0.0488624
0.0593129
0.0710769
0.0825496
0.0907532
0.0913524
0.079873
0.0516461
0.00484571
0.00497602
0.0553451
0.0856921
0.0976475
0.0963961
0.0868836
0.0738983
0.0607389
0.0491519
0.0396563
0.0324646
0.0279073
0.00600988
0.00549446
0.00530695
0.00576181
0.00625134
0.0298225
0.0354822
0.0431807
0.0532398
0.0652977
0.0787989
0.0918688
0.101138
0.101779
0.0888442
0.0570878
0.00514861
0.00529385
0.0611872
0.0952805
0.108793
0.107515
0.0968988
0.0822452
0.067257
0.0539697
0.0430596
0.0349678
0.0298057
0.0265525
0.0058786
0.00571447
0.00614629
0.0281652
0.0319947
0.0383284
0.0470559
0.0585754
0.0723725
0.0877181
0.102448
0.112782
0.113378
0.0987772
0.0631735
0.00548734
0.0056485
0.0677185
0.10587
0.121167
0.119958
0.108249
0.0918752
0.0749618
0.0598528
0.0474089
0.0383187
0.0325379
0.0291981
0.0268255
0.00615396
0.0284013
0.0309023
0.0350522
0.0420831
0.0519357
0.0650293
0.0806788
0.0979587
0.114396
0.125781
0.126238
0.109746
0.0701091
0.00585258
0.00602788
0.0751735
0.117543
0.134866
0.133835
0.121059
0.10293
0.084015
0.0669859
0.0529141
0.0427508
0.036354
0.0329218
0.0307984
0.0299331
0.0322963
0.0347755
0.0392442
0.0469754
0.0580256
0.072782
0.0903748
0.109659
0.127835
0.140246
0.140456
0.121851
0.0785158
0.00606662
0.00614151
0.084006
0.130405
0.149997
0.14927
0.135469
0.115567
0.0945954
0.0755746
0.0598126
0.0485266
0.0415324
0.0380024
0.0361131
0.0354633
0.0375642
0.0400665
0.0448456
0.0532597
0.0655546
0.0820339
0.101635
0.122973
0.142902
0.156297
0.156137
0.135163
0.0875914
0.00617547
0.0267704
0.0935377
0.144541
0.166671
0.166396
0.15163
0.129957
0.106898
0.0858426
0.0683599
0.0559254
0.0483642
0.0447282
0.0430445
0.0426024
0.0445029
0.0470613
0.0521397
0.0612052
0.0747694
0.0930032
0.114652
0.13807
0.159748
0.174067
0.173393
0.149792
0.0973645
0.0270511
0.0281073
0.103781
0.160044
0.185003
0.185356
0.169706
0.146286
0.121134
0.0980285
0.0788231
0.0652311
0.0571372
0.0533824
0.0518644
0.0516207
0.0533907
0.0560348
0.0614035
0.0710853
0.0859285
0.105923
0.129633
0.155135
0.178535
0.193698
0.192334
0.165808
0.107824
0.0285479
0.0297079
0.114738
0.176991
0.205111
0.206298
0.189872
0.164752
0.137525
0.112381
0.0914743
0.0767223
0.0681247
0.0642309
0.0628285
0.0627672
0.064478
0.0672411
0.0728994
0.0831692
0.0992968
0.121036
0.146796
0.174362
0.199437
0.215338
0.213077
0.183282
0.119009
0.0302972
0.0316079
0.126465
0.195456
0.227115
0.229377
0.212308
0.185561
0.156302
0.129157
0.106585
0.0906665
0.08158
0.0775178
0.0761729
0.0762705
0.0779896
0.0809115
0.0868718
0.0977171
0.11514
0.138595
0.166372
0.195959
0.222635
0.239138
0.235738
0.202288
0.130986
0.0323163
0.0338253
0.139034
0.215515
0.251133
0.254745
0.2372
0.208927
0.177703
0.148612
0.124424
0.107318
0.0977385
0.0934671
0.092116
0.092343
0.0941304
0.0972583
0.10355
0.11498
0.133722
0.158853
0.188596
0.220138
0.248314
0.265252
0.260432
0.222901
0.143832
0.0346246
0.036367
0.152518
0.237245
0.277284
0.282554
0.264731
0.235061
0.201965
0.171002
0.145251
0.126923
0.116822
0.112289
0.110865
0.111188
0.113096
0.116483
0.123152
0.135204
0.155301
0.182062
0.213704
0.247112
0.276659
0.29383
0.287272
0.245194
0.157626
0.037235
0.039237
0.166983
0.260721
0.305674
0.312949
0.295081
0.264175
0.229324
0.196577
0.169321
0.149721
0.139046
0.134187
0.132624
0.133009
0.135079
0.138782
0.145896
0.158683
0.18013
0.20847
0.241929
0.27709
0.307846
0.325015
0.316365
0.269242
0.172439
0.0401602
0.0424397
0.182487
0.286011
0.336404
0.346062
0.328418
0.296469
0.260005
0.225579
0.196879
0.175972
0.16463
0.159368
0.157602
0.158013
0.160281
0.16436
0.172
0.185698
0.208451
0.238315
0.273495
0.310271
0.342044
0.358936
0.347809
0.295108
0.188324
0.0434163
0.04598
0.199078
0.313169
0.369555
0.382012
0.364898
0.332133
0.294223
0.258235
0.228161
0.206022
0.193797
0.188049
0.186016
0.186422
0.188916
0.19343
0.201688
0.216474
0.240496
0.271822
0.308611
0.346841
0.379403
0.395709
0.381685
0.322851
0.205321
0.0470215
0.0498635
0.216788
0.342237
0.405191
0.420895
0.404654
0.371334
0.332171
0.294756
0.263385
0.240077
0.226778
0.220454
0.218099
0.218472
0.221213
0.226217
0.235187
0.251226
0.276481
0.309199
0.347469
0.38696
0.420051
0.435426
0.418056
0.352512
0.223454
0.0509921
0.0540963
0.23564
0.373237
0.443351
0.462781
0.447794
0.414214
0.37402
0.335331
0.302752
0.278342
0.263807
0.256826
0.254098
0.254413
0.257419
0.262965
0.272745
0.290165
0.316604
0.350629
0.39023
0.430765
0.464088
0.47815
0.45696
0.384116
0.242732
0.055338
0.0586836
0.25564
0.406166
0.484046
0.507708
0.494389
0.46088
0.419906
0.380121
0.346443
0.321009
0.305149
0.297418
0.294274
0.294511
0.297796
0.30393
0.314614
0.333483
0.361043
0.396268
0.437024
0.478354
0.511579
0.523913
0.498401
0.41766
0.263157
0.0600607
0.0636293
0.276775
0.440994
0.527248
0.55567
0.544468
0.511398
0.469928
0.429251
0.394607
0.368249
0.351027
0.342485
0.338895
0.339042
0.342615
0.349383
0.361186
0.381353
0.409941
0.446234
0.487942
0.529783
0.562546
0.572704
0.542347
0.453113
0.284715
0.0651539
0.068935
0.299016
0.477659
0.572889
0.606618
0.598011
0.565781
0.524135
0.482803
0.447355
0.420201
0.401936
0.392326
0.388232
0.388283
0.392159
0.3996
0.41269
0.433911
0.463407
0.500601
0.543025
0.58506
0.616961
0.624466
0.588722
0.490402
0.307378
0.0706065
0.0745987
0.322308
0.516059
0.620853
0.660445
0.65494
0.623988
0.58252
0.540805
0.504754
0.476959
0.457915
0.44713
0.442588
0.442539
0.446712
0.454881
0.469198
0.491252
0.521501
0.559392
0.602257
0.644134
0.674737
0.679088
0.637403
0.529418
0.331094
0.0764061
0.0806139
0.346573
0.55605
0.670969
0.716983
0.715109
0.685907
0.645011
0.603225
0.56681
0.538566
0.518988
0.507433
0.502124
0.502003
0.506511
0.515611
0.530751
0.553421
0.584226
0.622569
0.66556
0.706886
0.735725
0.736398
0.688216
0.570008
0.355784
0.0825411
0.0869681
0.371703
0.597442
0.723007
0.775999
0.778303
0.751352
0.711461
0.669958
0.63346
0.604999
0.585133
0.57316
0.567396
0.567116
0.572036
0.5817
0.597342
0.620394
0.651517
0.690019
0.732779
0.773124
0.799703
0.796156
0.740926
0.611972
0.381336
0.0889993
0.093642
0.397565
0.639996
0.776677
0.837185
0.844226
0.820055
0.781636
0.740812
0.70456
0.676156
0.656262
0.644174
0.638248
0.637931
0.643084
0.65303
0.668893
0.692071
0.723226
0.761549
0.803676
0.842574
0.866368
0.858052
0.79524
0.655068
0.407605
0.0957649
0.100609
0.423996
0.683425
0.831624
0.90016
0.912496
0.891656
0.85521
0.815502
0.77987
0.751841
0.732206
0.720282
0.714436
0.714174
0.71943
0.729426
0.745238
0.768255
0.799111
0.836869
0.877921
0.91487
0.935334
0.921695
0.850796
0.699003
0.43442
0.102815
0.107833
0.450803
0.727392
0.887429
0.964463
0.982644
0.965698
0.931754
0.893638
0.859044
0.831753
0.812694
0.801211
0.795655
0.79553
0.800783
0.810618
0.826107
0.848642
0.878823
0.915584
0.955077
0.989547
1.00612
0.986616
0.907167
0.743435
0.46158
0.110117
0.11527
0.477772
0.771516
0.943612
1.02956
1.05411
1.04162
1.01073
0.974715
0.941618
0.915472
0.897336
0.886578
0.881513
0.881594
0.886755
0.896225
0.911106
0.932803
0.961892
0.997186
1.0346
1.06604
1.07816
1.05227
0.963859
0.787973
0.488862
0.117629
0.12287
0.504658
0.81537
0.999629
1.09482
1.12623
1.11876
1.09149
1.05811
1.02701
1.00244
0.985608
0.97587
0.97149
0.971845
0.976828
0.985732
0.999702
1.02018
1.04772
1.08104
1.11583
1.14367
1.15078
1.11801
1.02031
0.832178
0.516019
0.1253
0.13057
0.531198
0.858483
1.05488
1.15956
1.19827
1.19635
1.17325
1.14307
1.11448
1.09198
1.07684
1.06842
1.06493
1.06562
1.07034
1.07847
1.09121
1.11006
1.13558
1.16639
1.198
1.22166
1.22323
1.18316
1.07591
0.87557
0.54278
0.133069
0.138304
0.557104
0.90035
1.1087
1.22302
1.26939
1.27351
1.25515
1.22873
1.2032
1.18324
1.1702
1.16342
1.16099
1.16208
1.16647
1.17362
1.1848
1.20159
1.22458
1.25235
1.28021
1.29915
1.29467
1.24691
1.13
0.917633
0.56885
0.14087
0.145995
0.582071
0.940432
1.1604
1.28437
1.33868
1.34929
1.3362
1.31409
1.29215
1.27522
1.26471
1.25987
1.2587
1.26025
1.26421
1.27016
1.27946
1.29376
1.31373
1.33791
1.36146
1.37514
1.36418
1.30846
1.18185
0.957826
0.593918
0.148631
0.15356
0.60578
0.978169
1.20924
1.34275
1.40518
1.42265
1.4153
1.39803
1.38021
1.36681
1.35921
1.3566
1.35688
1.35893
1.36239
1.36694
1.37403
1.38543
1.40189
1.42194
1.44066
1.44861
1.43078
1.36692
1.23075
0.995591
0.61766
0.156265
0.160906
0.627907
1.01299
1.25449
1.39725
1.46786
1.49248
1.4913
1.47936
1.46615
1.45671
1.4524
1.45231
1.45418
1.45679
1.45968
1.46263
1.4672
1.4753
1.48778
1.50323
1.51663
1.51843
1.49345
1.42139
1.27594
1.03036
0.639749
0.163678
0.167939
0.648124
1.04434
1.29538
1.44699
1.5257
1.55764
1.56296
1.55676
1.5486
1.54353
1.54285
1.5455
1.54912
1.55232
1.55456
1.55574
1.55752
1.56196
1.57007
1.58048
1.58815
1.58345
1.55115
1.47096
1.31668
1.06158
0.659866
0.170767
0.174555
0.666117
1.07165
1.3312
1.49106
1.57767
1.61699
1.62903
1.6289
1.62614
1.62578
1.62901
1.6346
1.64007
1.6439
1.64543
1.64468
1.64345
1.64394
1.64732
1.65233
1.65395
1.64252
1.60284
1.51476
1.35225
1.0887
0.677703
0.177422
0.180652
0.681584
1.09444
1.36128
1.52863
1.62277
1.66936
1.68824
1.69439
1.69731
1.70191
1.70924
1.71792
1.72533
1.72979
1.73057
1.72779
1.72336
1.71967
1.71807
1.71742
1.71276
1.69449
1.64752
1.55193
1.38197
1.11122
0.692974
0.183535
0.186126
0.694255
1.11224
1.38499
1.55893
1.66004
1.71368
1.73935
1.75189
1.76063
1.77034
1.7819
1.79374
1.80312
1.80822
1.80822
1.80333
1.79561
1.78761
1.78087
1.7744
1.76336
1.73828
1.68425
1.5817
1.40523
1.12869
0.705414
0.189001
0.190876
0.703891
1.12466
1.40181
1.58125
1.68866
1.74892
1.7812
1.80007
1.81465
1.82951
1.84533
1.86035
1.8717
1.87742
1.87662
1.86961
1.85857
1.84621
1.83427
1.82196
1.80458
1.77286
1.7122
1.60339
1.42151
1.14071
0.714787
0.193725
0.194808
0.7103
1.1314
1.4113
1.59503
1.70787
1.77419
1.81272
1.83769
1.85798
1.87791
1.89791
1.91606
1.92935
1.93568
1.93409
1.92498
1.91064
1.89398
1.87693
1.85888
1.83536
1.79736
1.73062
1.61644
1.43039
1.14698
0.720897
0.197616
0.197987
0.713332
1.13224
1.41316
1.59983
1.71709
1.78873
1.83297
1.86366
1.88938
1.91416
1.93816
1.95932
1.97447
1.98138
1.97901
1.96786
1.95035
1.92955
1.90758
1.88406
1.85478
1.81103
1.73896
1.62041
1.43155
1.14729
0.723588
0.200674
0.200511
0.712888
1.12706
1.4072
1.59536
1.7159
1.79196
1.84126
1.87952
1.91156
1.94074
1.9675
1.99031
2.00628
2.01333
2.01047
1.99823
1.97881
1.955
1.92847
1.89857
1.86215
1.81329
1.73681
1.61504
1.42482
1.14153
0.722754
0.203103
0.202289
0.70892
1.11583
1.39337
1.58151
1.70408
1.7837
1.84168
1.88631
1.92345
1.95644
1.98579
2.01018
2.02697
2.03418
2.03085
2.01755
1.99632
1.96973
1.93925
1.90415
1.86108
1.80394
1.72395
1.60023
1.41017
1.12967
0.718349
0.204794
0.203237
0.701424
1.09864
1.37175
1.55834
1.68179
1.76921
1.83343
1.883
1.92424
1.96041
1.99204
2.01786
2.0354
2.04275
2.03899
2.02471
2.00185
1.97282
1.93901
1.8997
1.85149
1.78795
1.70057
1.57606
1.38768
1.11179
0.710378
0.205649
0.203281
0.690445
1.07563
1.3426
1.52627
1.65427
1.74724
1.81577
1.86902
1.91342
1.95214
1.98565
2.01264
2.03079
2.03825
2.03411
2.01899
1.99475
1.96369
1.92719
1.88461
1.83259
1.76463
1.6716
1.54294
1.35763
1.08808
0.6989
0.205588
0.202363
0.676069
1.0471
1.30638
1.48892
1.62111
1.71716
1.78835
1.8441
1.89076
1.93138
1.96629
1.99416
2.01274
2.02023
2.01578
2
1.9747
1.94209
1.90355
1.85858
1.80396
1.73328
1.63715
1.50427
1.32047
1.05881
0.684015
0.20455
0.200523
0.658339
1.01343
1.26432
1.44818
1.5816
1.67867
1.75107
1.80823
1.8563
1.89813
1.93392
1.9623
1.98109
1.98855
1.98387
1.96765
1.94165
1.908
1.86811
1.82161
1.76551
1.69359
1.59644
1.46237
1.27728
1.0244
0.66582
0.202546
0.198254
0.636824
0.975309
1.22103
1.40316
1.53543
1.6318
1.70411
1.76164
1.81027
1.85261
1.88875
1.91725
1.936
1.94333
1.93851
1.92211
1.8958
1.86165
1.82109
1.77391
1.71738
1.64556
1.54914
1.41628
1.23299
0.985487
0.643816
0.200126
0.195463
0.612086
0.93516
1.17539
1.3534
1.48258
1.57677
1.64779
1.70472
1.75308
1.79524
1.83116
1.85936
1.87782
1.88493
1.88007
1.86374
1.83755
1.80345
1.76292
1.71589
1.65992
1.58939
1.49521
1.36552
1.18641
0.944455
0.618574
0.197194
0.19207
0.585679
0.894311
1.12681
1.29878
1.42324
1.51394
1.58259
1.63797
1.68525
1.72655
1.76169
1.78917
1.80705
1.81387
1.80906
1.79308
1.76743
1.73396
1.69414
1.64807
1.59359
1.52546
1.43484
1.30995
1.13697
0.90281
0.591612
0.193672
0.188
0.55843
0.852077
1.07504
1.23936
1.35774
1.44378
1.50907
1.56201
1.60743
1.6472
1.681
1.70731
1.72436
1.73078
1.72614
1.7108
1.68612
1.65383
1.61539
1.57107
1.51897
1.45423
1.36834
1.24963
1.08439
0.859851
0.563845
0.189487
0.183176
0.530094
0.808073
1.02002
1.17537
1.28649
1.36683
1.42781
1.47749
1.52032
1.55791
1.5898
1.61452
1.63045
1.63639
1.63204
1.61761
1.59435
1.56379
1.52739
1.48556
1.43668
1.37626
1.29613
1.18477
1.0286
0.815182
0.535024
0.184559
0.17752
0.500522
0.762122
0.961845
1.10711
1.20993
1.28365
1.33947
1.38511
1.42465
1.45943
1.48886
1.51156
1.52609
1.53144
1.52752
1.51431
1.49289
1.4646
1.43088
1.39224
1.34735
1.2921
1.21865
1.11567
0.969696
0.768618
0.504999
0.178805
0.170952
0.469645
0.714182
0.900686
1.03491
1.12854
1.19479
1.24468
1.28556
1.32115
1.35252
1.37897
1.39922
1.41204
1.41667
1.41333
1.40166
1.38251
1.35704
1.32659
1.29181
1.25163
1.20232
1.13638
1.04267
0.907844
0.720112
0.473701
0.172139
0.163389
0.437448
0.664302
0.836755
0.959129
1.04278
1.10081
1.14405
1.17953
1.21056
1.23796
1.26088
1.27825
1.28898
1.29275
1.29019
1.28042
1.26401
1.24186
1.21526
1.18495
1.15014
1.10747
1.04979
0.966132
0.843257
0.669708
0.441117
0.164476
0.154747
0.403957
0.612585
0.770283
0.880098
0.953071
1.00223
1.03821
1.0677
1.09361
1.11651
1.13539
1.14938
1.15757
1.16026
1.15877
1.15132
1.13814
1.11985
1.09763
1.07236
1.04351
1.0081
0.959323
0.886395
0.776169
0.617504
0.407271
0.155729
0.144935
0.369222
0.55916
0.701495
0.798142
0.85985
0.899575
0.927763
0.950759
0.971072
0.988965
1.00328
1.01335
1.01837
1.01962
1.01967
1.01513
1.00574
0.991814
0.974475
0.95473
0.932344
0.904721
0.865396
0.803783
0.706804
0.563624
0.372214
0.14581
0.13386
0.333313
0.504164
0.630596
0.71356
0.763537
0.793402
0.813389
0.829491
0.843802
0.856265
0.865481
0.870962
0.87186
0.871098
0.873464
0.872708
0.867736
0.858688
0.846651
0.832835
0.817314
0.797886
0.768436
0.718595
0.635368
0.508199
0.336007
0.134628
0.12142
0.296306
0.447724
0.557768
0.626652
0.664615
0.684385
0.695936
0.704893
0.712938
0.719655
0.723244
0.723341
0.718532
0.714699
0.720844
0.725228
0.725406
0.721731
0.715299
0.707675
0.699269
0.688267
0.668921
0.631127
0.562039
0.451355
0.29872
0.122083
0.107507
0.258283
0.389945
0.483162
0.53776
0.563736
0.573506
0.576666
0.578459
0.580197
0.581078
0.578639
0.572326
0.558933
0.54993
0.562745
0.574651
0.580833
0.58288
0.582127
0.58074
0.579462
0.576836
0.567494
0.541712
0.486961
0.393192
0.26043
0.108066
0.0920088
0.219333
0.330887
0.406909
0.447376
0.461968
0.462449
0.457789
0.452811
0.448584
0.443954
0.43559
0.421773
0.395119
0.375598
0.401685
0.424889
0.437874
0.445502
0.450106
0.45463
0.460082
0.465255
0.465197
0.45082
0.410255
0.333766
0.221222
0.0924646
0.0748109
0.179529
0.27047
0.329064
0.356224
0.361102
0.354195
0.343355
0.332869
0.323794
0.314793
0.30219
0.281523
0.221387
0.187338
0.2353
0.285106
0.3043
0.315915
0.324809
0.334178
0.34511
0.356439
0.363769
0.359135
0.331947
0.272989
0.181173
0.0751576
0.0559471
0.138938
0.208255
0.24949
0.265371
0.263987
0.253676
0.240359
0.227581
0.216454
0.203697
0.18711
0.159924
0.128871
0.110141
0.133563
0.16429
0.188563
0.204171
0.216699
0.228175
0.241399
0.255195
0.265948
0.267639
0.251843
0.210403
0.140359
0.0561803
0.0362942
0.0963342
0.141692
0.16573
0.173323
0.170207
0.161592
0.148109
0.135495
0.12503
0.117658
0.110477
0.0978864
0.0783701
0.0642065
0.0818931
0.099374
0.110385
0.117146
0.124691
0.135441
0.148446
0.162213
0.171253
0.174742
0.16736
0.143314
0.0975496
0.0364782
0.010907
0.0133324
0.0750037
0.0831628
0.0841136
0.0824172
0.0807848
0.0822145
0.0839942
0.08477
0.0837
0.0796066
0.069723
0.0647535
0.0601282
0.067008
0.0706202
0.0791725
0.0827575
0.0836043
0.0827834
0.0811
0.0800237
0.082063
0.0845722
0.0838666
0.0758761
0.0134284
0.0110217
0.00977827
0.0109628
0.0117373
0.0120925
0.0122323
0.0121575
0.012013
0.0117388
0.0113554
0.0108857
0.0103014
0.00953009
0.0084468
0.00708893
0.00647727
0.00770785
0.00896076
0.00990014
0.010607
0.0111794
0.0116441
0.01201
0.0122569
0.0124092
0.0124546
0.0123095
0.0119531
0.0112307
0.0100868
0.0166783
0.0174368
0.0184361
0.019248
0.0195798
0.0190751
0.0182864
0.0173474
0.0157289
0.0144533
0.0128307
0.0112989
0.00958113
0.00850051
0.00839039
0.00882672
0.010348
0.012155
0.0140469
0.015916
0.0172089
0.018443
0.0195627
0.0201053
0.0204089
0.0202472
0.0195117
0.0182348
0.0175989
0.0147252
0.0174781
0.0191571
0.0203782
0.0209975
0.0208665
0.0203166
0.0194348
0.0181541
0.0167503
0.0151332
0.0133514
0.0104669
0.00930913
0.00936176
0.00955448
0.0113852
0.0143889
0.0161864
0.0179025
0.0193835
0.0206487
0.0216149
0.0220488
0.0220617
0.021494
0.0202327
0.0181453
0.0155908
0.0130183
0.0162163
0.0182666
0.0197478
0.0205714
0.0207754
0.0205069
0.0198284
0.0187554
0.0173979
0.0157599
0.0133584
0.0106436
0.0095412
0.00969439
0.00974998
0.0116641
0.0149936
0.0168037
0.0184725
0.0198808
0.0209731
0.0216904
0.0219223
0.0216664
0.0208147
0.0192321
0.0163679
0.013794
0.0117029
0.0141109
0.0172458
0.0189014
0.0198501
0.0202344
0.0201568
0.0196525
0.0187365
0.0174618
0.0158516
0.0138755
0.0106409
0.00951993
0.00972372
0.00969027
0.0115971
0.0150412
0.0168715
0.0184845
0.0197815
0.0207099
0.021231
0.0212967
0.0208872
0.0199059
0.0181928
0.0150743
0.0123768
0.0107388
0.0129463
0.0164942
0.0182145
0.0191763
0.0196104
0.0196169
0.0192151
0.0184072
0.0172145
0.0156505
0.0137079
0.0104561
0.00935446
0.00958347
0.00949375
0.0113496
0.0147175
0.0166417
0.0181909
0.019386
0.0201984
0.0206092
0.0206021
0.0201578
0.0191723
0.0174218
0.0138541
0.0113311
0.0100548
0.0122953
0.0155578
0.0177414
0.0186643
0.0190559
0.0190585
0.0186902
0.0179427
0.016815
0.0153031
0.0134252
0.0101731
0.00911209
0.00935075
0.00923172
0.0110264
0.0143829
0.0162728
0.0177535
0.0188705
0.019618
0.0199947
0.0200003
0.0196123
0.0187067
0.0169806
0.013118
0.0105875
0.00958878
0.0119949
0.0158842
0.0175577
0.0183427
0.0186227
0.0185537
0.0181622
0.0174345
0.016352
0.0148896
0.0130523
0.0098294
0.00883008
0.00907048
0.00894511
0.0106749
0.0140092
0.0158431
0.0172602
0.0183245
0.019051
0.0194541
0.0195393
0.0192729
0.0184987
0.0168274
0.0127524
0.0100781
0.00929606
0.0119289
0.0159771
0.0175798
0.0182022
0.0183237
0.0181332
0.0176743
0.016933
0.0158768
0.0144519
0.0122299
0.00942609
0.00853023
0.00876789
0.00865144
0.0103047
0.013621
0.0153986
0.0167616
0.0177963
0.0185378
0.0190134
0.0192279
0.0191281
0.0185144
0.0169065
0.0126531
0.00975399
0.00913903
0.0120399
0.0162642
0.0177836
0.0182281
0.0181586
0.0178093
0.0172486
0.0164665
0.0154189
0.0140244
0.0116725
0.00904541
0.00823087
0.00845767
0.0083617
0.00993965
0.013241
0.0149663
0.0162865
0.0173123
0.0180982
0.0186818
0.0190625
0.0191598
0.0187217
0.0171752
0.0127524
0.00957644
0.00909531
0.0122961
0.0167018
0.0181501
0.018408
0.0181237
0.0175868
0.0168965
0.0160505
0.014995
0.0136218
0.0112108
0.00869465
0.00794054
0.00814859
0.00808369
0.00959605
0.0128825
0.0145615
0.0158509
0.0168871
0.0177423
0.0184624
0.0190376
0.0193538
0.0190993
0.0176086
0.0130108
0.0095211
0.00915413
0.0126812
0.0172844
0.0186701
0.0187353
0.0182167
0.0174682
0.0166244
0.0156934
0.0146138
0.0132439
0.0105541
0.00833802
0.00765864
0.00784519
0.00782115
0.00927804
0.012534
0.0141914
0.0154635
0.0165284
0.0174752
0.0183565
0.0191498
0.0197032
0.019639
0.0182016
0.0134225
0.00957319
0.00931101
0.0132024
0.0180137
0.0193436
0.0192096
0.0184389
0.0174563
0.0164365
0.0154004
0.0142801
0.0128995
0.0100058
0.00800348
0.00738695
0.00754975
0.00757264
0.00895715
0.011835
0.0138538
0.0151289
0.016241
0.0173011
0.0183666
0.0194003
0.0202091
0.0203459
0.0189797
0.0141391
0.00970782
0.00954788
0.0139848
0.0189205
0.0201831
0.0198383
0.0187958
0.0175561
0.0163373
0.0151755
0.013997
0.0125941
0.00956846
0.00770484
0.00712792
0.00726402
0.0073422
0.0087157
0.0118896
0.0135619
0.0148501
0.0160286
0.0172242
0.0184977
0.0197955
0.0208802
0.021235
0.0199913
0.0159033
0.0099553
0.00991198
0.0152053
0.020037
0.0212085
0.0206357
0.019298
0.0177752
0.0163325
0.0150226
0.0137671
0.0123303
0.00922018
0.00744392
0.00688294
0.00698903
0.00712558
0.0084889
0.0117983
0.0133074
0.0146298
0.0158957
0.0172507
0.0187584
0.0203467
0.0217317
0.0223218
0.0211898
0.0172331
0.010339
0.0104188
0.0165009
0.0213638
0.022442
0.0216211
0.0199606
0.0181248
0.0164297
0.0149467
0.0135933
0.0121118
0.00894078
0.00721763
0.00665247
0.00672521
0.00691812
0.00826305
0.0115488
0.0130909
0.014471
0.0158479
0.0173893
0.0191609
0.0210709
0.0227843
0.0236279
0.02259
0.0184463
0.0108808
0.0110775
0.0184451
0.0229458
0.0239104
0.0228185
0.0208036
0.01862
0.0166395
0.0149546
0.0134799
0.0119684
0.00871945
0.00702232
0.00643668
0.00647339
0.00671863
0.00803991
0.0112551
0.0129223
0.0143788
0.0158927
0.0176515
0.0197218
0.0219894
0.0240636
0.0251807
0.0242265
0.0198444
0.011573
0.0118884
0.0201769
0.0247685
0.0256385
0.0242546
0.0218503
0.0192794
0.0169752
0.015055
0.0134323
0.0118865
0.00854752
0.00685477
0.00623578
0.00623471
0.00652588
0.00776834
0.0102071
0.0128169
0.0143601
0.0160407
0.0180523
0.0204614
0.0231273
0.0255975
0.0270072
0.0261206
0.0214384
0.0124385
0.0128717
0.0219767
0.0268491
0.027651
0.0259576
0.0231274
0.0201251
0.0174537
0.0152593
0.0134573
0.0118553