/*--------------------------------*- C++ -*----------------------------------*\
| =========                 |                                                 |
| \\      /  F ield         | OpenFOAM: The Open Source CFD Toolbox           |
|  \\    /   O peration     | Version:  5.x                                   |
|   \\  /    A nd           | Web:      www.OpenFOAM.org                      |
|    \\/     M anipulation  |                                                 |
\*---------------------------------------------------------------------------*/
/*   Windows 32 and 64 bit porting by blueCAPE: http://www.bluecape.com.pt   *\
|  Based on Windows porting (2.0.x v4) by Symscape: http://www.symscape.com   |
\*---------------------------------------------------------------------------*/
FoamFile
{
    version     2.0;
    format      ascii;
    class       volScalarField;
    location    "4.95";
    object      k;
}
// * * * * * * * * * * * * * * * * * * * * * * * * * * * * * * * * * * * * * //

dimensions      [0 2 -2 0 0 0 0];

internalField   nonuniform List<scalar> 
400055
(
0.00327341
0.00367515
0.00389005
0.0039774
0.00399313
0.00395989
0.00388395
0.00377903
0.00366362
0.00351964
0.00338556
0.00318643
0.00287505
0.00244376
0.00223424
0.00264691
0.00303638
0.00328985
0.00345807
0.00361615
0.00376375
0.00389224
0.00399439
0.0040691
0.00410086
0.00407385
0.00397427
0.00377587
0.00339014
0.00320351
0.00365478
0.00386205
0.00398531
0.00402674
0.00400491
0.00394273
0.00384562
0.00394298
0.0038534
0.00374896
0.00356453
0.00325719
0.00284303
0.00265897
0.00301071
0.00339838
0.00362321
0.00372151
0.00369947
0.00383747
0.00396381
0.00405768
0.00412029
0.00413573
0.00408351
0.00394787
0.00373879
0.00331249
0.00307428
0.00364391
0.00389004
0.00408279
0.00417613
0.00419033
0.0041493
0.00405962
0.00397533
0.00383903
0.00368967
0.00356326
0.003418
0.00307041
0.00291624
0.00321431
0.00355473
0.00364381
0.00375706
0.00390743
0.00406187
0.00419053
0.00427724
0.00431755
0.00429577
0.00419108
0.00398552
0.00364821
0.00316429
0.00293783
0.00359767
0.00386455
0.00411579
0.00425959
0.00431475
0.00430159
0.00422734
0.00411298
0.00395402
0.00376309
0.00370152
0.00351709
0.00321334
0.00308684
0.00334372
0.0036581
0.00373657
0.00387295
0.00407549
0.00424101
0.00436627
0.00443773
0.00444853
0.00438554
0.0042305
0.00397016
0.00373716
0.00301706
0.00282537
0.00366751
0.00382183
0.0041123
0.00429716
0.00438912
0.00440372
0.00434693
0.00423023
0.00405941
0.00383503
0.0036845
0.0035577
0.00330005
0.00319887
0.00342093
0.00371273
0.00380897
0.00397319
0.00420028
0.00437229
0.00449066
0.00454408
0.00452568
0.00442583
0.0042297
0.00392354
0.00369568
0.00288774
0.0027319
0.00365866
0.00377473
0.00409355
0.00430928
0.00442996
0.00446755
0.00442622
0.00431356
0.00413681
0.00389278
0.00365744
0.00356019
0.00334795
0.00326954
0.00345972
0.00371805
0.00380274
0.00404937
0.00428705
0.00446153
0.0045721
0.00460916
0.00456674
0.00443827
0.00421217
0.00387188
0.00367402
0.00279216
0.00265446
0.00363278
0.00387434
0.0040793
0.00431059
0.00445054
0.00450428
0.00447436
0.00436635
0.00418689
0.00392935
0.00365107
0.00355295
0.00337132
0.00331097
0.00347506
0.00370382
0.00380179
0.00409804
0.00434221
0.00451675
0.00462052
0.00464528
0.00458597
0.00443797
0.0041919
0.00382885
0.00365851
0.00271206
0.00258939
0.00360956
0.0038406
0.00406632
0.00430982
0.00446042
0.00452296
0.00449953
0.00439472
0.00421409
0.0039483
0.00365086
0.00354441
0.00337874
0.00333136
0.00347656
0.00368469
0.00380132
0.0041244
0.00437205
0.00454566
0.00464477
0.0046623
0.00459372
0.00443496
0.00417712
0.00379758
0.00364783
0.00264489
0.0025342
0.00359346
0.00377308
0.00406403
0.00431284
0.0044663
0.00453051
0.00450851
0.00440465
0.00422333
0.00395306
0.00370431
0.00353949
0.00337553
0.00333597
0.00346836
0.00366563
0.00379617
0.00413324
0.00438234
0.00455501
0.00465216
0.00466777
0.00459726
0.00443575
0.00417299
0.00378105
0.00364592
0.00258769
0.00248781
0.00359281
0.00373642
0.00407492
0.00432397
0.00447312
0.00453234
0.00450685
0.00440138
0.00421907
0.00394575
0.00371064
0.0035279
0.00336382
0.00332848
0.00345279
0.00364521
0.00378489
0.00412871
0.00437813
0.00455052
0.00464868
0.0046675
0.00460186
0.00444478
0.00418286
0.00378169
0.00365645
0.00253917
0.00244973
0.00361102
0.00374057
0.00410364
0.00434662
0.00448476
0.00453283
0.00449918
0.00438934
0.0042052
0.00392971
0.00369563
0.0035103
0.00334547
0.00331157
0.00343124
0.00362169
0.00376754
0.00411434
0.00436376
0.00453707
0.00463929
0.00466621
0.00461166
0.00446544
0.00420932
0.00380178
0.00368222
0.00249847
0.00241931
0.00364904
0.00377628
0.00415208
0.00438367
0.0045046
0.00453574
0.00448944
0.00437234
0.00418502
0.00390535
0.00370645
0.00349561
0.00332295
0.00328733
0.00340493
0.00359503
0.00374472
0.004093
0.0043429
0.00451877
0.00462824
0.00466793
0.00463025
0.00450078
0.00425479
0.00384375
0.00372424
0.00246434
0.00239537
0.00370634
0.0038384
0.00422154
0.00443775
0.0045358
0.00454455
0.00448113
0.00435369
0.00416145
0.00387878
0.00370239
0.00347809
0.00329702
0.00325747
0.00337561
0.00357019
0.00375021
0.00406687
0.00431871
0.00449922
0.00461931
0.0046764
0.00466107
0.00455383
0.0043217
0.00390866
0.00376101
0.00243198
0.00237175
0.00376525
0.00392568
0.00431381
0.00451165
0.00458159
0.0045626
0.00447751
0.00433636
0.00413707
0.00385135
0.00368824
0.00345728
0.00326823
0.00322335
0.00334427
0.00354291
0.00371901
0.00403759
0.00429392
0.00448165
0.00461602
0.00469526
0.0047077
0.00462791
0.00441284
0.00399409
0.00369193
0.00239824
0.00233279
0.00378122
0.00403923
0.00443162
0.00460863
0.0046455
0.00459334
0.00448177
0.00432315
0.00411419
0.00382447
0.003668
0.00343371
0.00323707
0.00318613
0.00331285
0.0035243
0.00372548
0.00400572
0.00427105
0.00446908
0.00462181
0.00472823
0.00477397
0.00472675
0.00453181
0.00410799
0.00369538
0.00236837
0.00230665
0.00382568
0.00418045
0.00457852
0.00473243
0.00473138
0.00464044
0.00449712
0.00431676
0.00409494
0.00379942
0.00364475
0.00340818
0.00320404
0.00314664
0.00328075
0.00350527
0.0037234
0.00397726
0.00425243
0.00446443
0.00464015
0.00477924
0.00486406
0.00485445
0.00468245
0.00425522
0.00367981
0.00232822
0.00228813
0.00376291
0.00435
0.00475838
0.0048872
0.00484345
0.00470781
0.00452694
0.00431991
0.00408133
0.00378052
0.00362119
0.00338167
0.0031697
0.00310574
0.00324863
0.00348586
0.00371733
0.00395388
0.00424039
0.00447069
0.00467468
0.0048525
0.00498245
0.00501537
0.00486841
0.004434
0.00371466
0.00229916
0.00227655
0.0038026
0.00455516
0.00497534
0.00507729
0.0049862
0.00479964
0.00457483
0.00433541
0.00407538
0.00376761
0.0035992
0.00335521
0.00313471
0.00306431
0.0032175
0.00346866
0.00372357
0.00393941
0.00423734
0.00449097
0.00472927
0.00495246
0.00513384
0.00521395
0.00509375
0.00464765
0.00379347
0.00228081
0.00227182
0.00389719
0.00479771
0.005233
0.00530688
0.00516414
0.00492034
0.00464461
0.00436628
0.00407929
0.00376124
0.00358044
0.00332996
0.00309991
0.00302326
0.00318819
0.00345315
0.00372349
0.00393385
0.00424586
0.00452863
0.00480803
0.00508373
0.00532288
0.00545433
0.00536157
0.00489886
0.00391644
0.00227613
0.00227928
0.0040392
0.00507898
0.00553399
0.00557962
0.0053816
0.00507437
0.00474036
0.00441582
0.00409562
0.00376284
0.00356673
0.00330738
0.00306643
0.00298372
0.00316193
0.00344164
0.00372465
0.00393836
0.00426876
0.00458728
0.00491527
0.00525093
0.00555391
0.00574004
0.00567439
0.00519012
0.00408168
0.00228967
0.00230353
0.00422625
0.0054004
0.00588008
0.00589839
0.00564247
0.00526614
0.00486634
0.00448768
0.00412744
0.00377453
0.00356034
0.00328943
0.00303594
0.00294727
0.00314023
0.00343609
0.00373131
0.00395481
0.00430922
0.00467086
0.00505542
0.00545846
0.00583071
0.00607379
0.00603376
0.00552266
0.00428572
0.0023256
0.00235022
0.00445297
0.00576256
0.00627215
0.00626523
0.00594998
0.00549975
0.00502691
0.00458591
0.00417847
0.00379907
0.0035643
0.00327899
0.00301102
0.00291635
0.00312526
0.00343766
0.0037398
0.00398597
0.00437092
0.00478361
0.00523291
0.00571031
0.00615627
0.0064573
0.0064403
0.00589675
0.00452692
0.00238508
0.00242098
0.00471672
0.00616541
0.00671044
0.00668137
0.00630668
0.00577894
0.00522648
0.00471494
0.00425346
0.00383984
0.00358273
0.00328042
0.00299596
0.00289514
0.00312081
0.00344988
0.00376345
0.00403562
0.00445821
0.0049301
0.00545207
0.00600997
0.0065328
0.00689146
0.00689396
0.00631203
0.00480334
0.00246887
0.00251622
0.00501533
0.00660851
0.00719477
0.00714744
0.00671444
0.006107
0.00546942
0.00487963
0.00435627
0.00390086
0.00362108
0.00330041
0.00299793
0.00289089
0.00313324
0.00347291
0.00377736
0.00411119
0.00457614
0.00511515
0.00571704
0.00636035
0.00696175
0.00737654
0.00739433
0.00676788
0.00511316
0.00257733
0.00263594
0.00534677
0.0070913
0.00772487
0.00766375
0.00717469
0.00648682
0.00576004
0.00508524
0.00449193
0.00398732
0.00368288
0.00334824
0.00302859
0.00291594
0.00317453
0.00352261
0.00382352
0.00421483
0.00473044
0.00534388
0.00603177
0.00676387
0.00744411
0.00791249
0.00794093
0.00726364
0.00545488
0.00271032
0.00277956
0.00570934
0.00761327
0.00830056
0.00823055
0.00768858
0.00692099
0.00610261
0.00533753
0.0046667
0.00410972
0.00374673
0.00343078
0.00310516
0.00298966
0.00326142
0.00360718
0.00390686
0.00435402
0.0049276
0.00562168
0.00640005
0.00722264
0.00798063
0.00849929
0.00853348
0.0077988
0.00582738
0.00286708
0.00294584
0.0061019
0.00817414
0.00892197
0.00884829
0.00825729
0.00741197
0.00650139
0.00564269
0.00488809
0.00427371
0.00385902
0.00356252
0.00325012
0.00313756
0.00340875
0.00369883
0.00403929
0.00453795
0.00517507
0.0059542
0.00682558
0.00773863
0.0085721
0.00913715
0.00917204
0.00837311
0.00623019
0.00304623
0.00313327
0.00652434
0.00877394
0.00958964
0.0095177
0.00888211
0.00796221
0.00696065
0.00600728
0.00516477
0.00449051
0.00403008
0.0037212
0.0034698
0.00338063
0.00363145
0.00386866
0.00422961
0.00477746
0.00548125
0.00634734
0.00731205
0.00831389
0.00921956
0.00982668
0.00985716
0.00898673
0.00666499
0.00324697
0.00334163
0.00697988
0.00941315
0.0103046
0.0102399
0.00956467
0.0085743
0.00748471
0.00643804
0.00550684
0.00477287
0.00427088
0.00396069
0.00373023
0.00369595
0.00388164
0.00411425
0.00449209
0.00508447
0.00585501
0.00680717
0.00786328
0.00895067
0.00992442
0.010569
0.0105899
0.00964073
0.00714144
0.00346991
0.00356649
0.00748368
0.0100934
0.0110681
0.0110165
0.0103069
0.00925103
0.00807791
0.00694174
0.00592612
0.00513424
0.00459714
0.00428821
0.00408735
0.00404104
0.00422969
0.00445014
0.00484145
0.00547122
0.00630536
0.00733975
0.00848316
0.00965151
0.0106885
0.0113655
0.0113717
0.0103373
0.00767543
0.00368515
0.0036922
0.008066
0.0108174
0.011882
0.0118493
0.011111
0.00999537
0.0087446
0.00752493
0.00643184
0.00558723
0.00502325
0.00471798
0.00454543
0.00450608
0.00467892
0.00489071
0.00529082
0.00594901
0.00684082
0.00795098
0.00917568
0.0104192
0.0115139
0.012218
0.012204
0.0110789
0.00827845
0.00378886
0.0037515
0.00866338
0.0115856
0.0127477
0.0127403
0.0119794
0.0108104
0.00948905
0.00819369
0.00703226
0.00614237
0.00556038
0.00526063
0.00511301
0.00508435
0.00524005
0.00544591
0.00585009
0.00652724
0.00746895
0.0086464
0.00994485
0.0112568
0.0124032
0.0131286
0.0130882
0.0118649
0.00888944
0.00382217
0.00386297
0.00928044
0.0123998
0.0136667
0.0136916
0.0129148
0.0116994
0.0103153
0.0089534
0.00773412
0.00680726
0.00621546
0.00592215
0.00579504
0.0057782
0.00591883
0.00612082
0.00652519
0.00721272
0.00819592
0.00943099
0.0107946
0.0121674
0.0133588
0.0140993
0.0140257
0.0126965
0.00951645
0.00392239
0.00400868
0.0099199
0.0132604
0.0146404
0.0147052
0.0139196
0.0126654
0.0112272
0.00980862
0.00854239
0.00758642
0.00699129
0.0067043
0.00659271
0.00658698
0.00671625
0.00691623
0.00731831
0.00800956
0.0090264
0.010309
0.0117285
0.0131541
0.0143833
0.0151319
0.0150176
0.0135739
0.0101643
0.00406536
0.0041817
0.0105838
0.0141676
0.0156699
0.0157829
0.0149962
0.0137114
0.0122281
0.0107629
0.00946031
0.00848165
0.0078874
0.00760562
0.0075045
0.00750804
0.00763005
0.00782993
0.00822885
0.00891954
0.00996357
0.0112841
0.0127499
0.0142198
0.0154791
0.0162283
0.0160649
0.014497
0.0108363
0.00424006
0.00437919
0.0112739
0.0151213
0.0167563
0.0169264
0.0161468
0.0148398
0.0133207
0.011819
0.0104896
0.00949276
0.00890131
0.00862279
0.00852737
0.00853787
0.00865632
0.00885813
0.00925451
0.00994278
0.0110093
0.0123587
0.0138615
0.0153671
0.0166482
0.0173899
0.0171685
0.0154659
0.011535
0.00444136
0.00459945
0.0119919
0.0161215
0.0179001
0.0181367
0.0173731
0.0160528
0.0145073
0.0129786
0.0116308
0.0106184
0.0100297
0.00975183
0.00965789
0.00967295
0.00979083
0.00999666
0.0103923
0.0110785
0.0121644
0.0135348
0.0150657
0.016598
0.0178923
0.0186178
0.0183289
0.0164807
0.0122623
0.00466628
0.00484122
0.0127392
0.0171683
0.0191017
0.0194146
0.0186762
0.0173519
0.0157893
0.0142426
0.0128836
0.0118569
0.0112691
0.010989
0.0108929
0.0109103
0.0110299
0.0112418
0.0116395
0.0123267
0.0134289
0.0148133
0.016364
0.017914
0.0192125
0.0199125
0.0195464
0.0175414
0.0130195
0.00491289
0.00510351
0.0135167
0.0182611
0.0203607
0.0207601
0.0200568
0.018738
0.0171675
0.015611
0.014247
0.0132072
0.0126168
0.0123313
0.0122301
0.012248
0.0123707
0.0125906
0.0129937
0.0136902
0.014802
0.0161945
0.017757
0.019316
0.0206094
0.0212743
0.0208206
0.0186477
0.0138074
0.00517983
0.00538542
0.0143245
0.0193992
0.0216764
0.0221729
0.0215146
0.020211
0.0186417
0.0170832
0.0157194
0.0146715
0.0140707
0.0137767
0.013668
0.0136848
0.0138117
0.0140412
0.0144531
0.0151655
0.0162826
0.017678
0.0192447
0.0208039
0.0220827
0.0227024
0.0221509
0.0197988
0.0146259
0.00546611
0.00568617
0.0151623
0.0205813
0.0230472
0.0236516
0.0230486
0.0217702
0.0202109
0.0186577
0.0172989
0.0162486
0.0156294
0.015324
0.0152061
0.0152205
0.0153522
0.0155926
0.0160163
0.0167499
0.0178687
0.0192622
0.0208262
0.0223769
0.0236313
0.0241955
0.0235356
0.0209935
0.0154746
0.00577094
0.00600497
0.0160293
0.0218054
0.024471
0.025194
0.024657
0.0234137
0.0218733
0.0203322
0.0189828
0.0179344
0.0172918
0.0169728
0.0168444
0.0168557
0.0169924
0.0172448
0.0176831
0.0184407
0.019558
0.0209452
0.0224996
0.0240331
0.0252531
0.0257513
0.0249724
0.0222299
0.0163524
0.00609367
0.00634103
0.0169239
0.0230688
0.0259448
0.026797
0.0263368
0.0251386
0.0236259
0.0221037
0.0207681
0.0197255
0.0190584
0.0187233
0.0185838
0.0185914
0.018733
0.0189981
0.0194533
0.020235
0.0213476
0.0227238
0.0242618
0.0257694
0.0269451
0.0273668
0.0264583
0.0235051
0.0172578
0.00643363
0.00669348
0.017844
0.024368
0.0274644
0.0284567
0.0280839
0.026941
0.0254648
0.0239682
0.022651
0.0216182
0.0209275
0.0205758
0.0204249
0.0204286
0.0205752
0.0208534
0.0213307
0.0221296
0.0232338
0.0245943
0.026109
0.0275819
0.0287032
0.0290377
0.0279892
0.0248155
0.0181884
0.00679007
0.00706133
0.0187869
0.0256989
0.0290248
0.0301676
0.029893
0.0288157
0.0273847
0.0259208
0.0246268
0.0236081
0.0229072
0.0225318
0.0223684
0.0223682
0.02252
0.0228117
0.0233162
0.0241205
0.025212
0.0265516
0.028036
0.0294653
0.030522
0.0307587
0.02956
0.0261568
0.0191415
0.0071621
0.00744345
0.0197492
0.0270561
0.0306202
0.0319234
0.0317577
0.0307562
0.0293795
0.0279554
0.0266902
0.0256901
0.0249905
0.0245888
0.0244161
0.0244123
0.0245684
0.0248732
0.025402
0.0262026
0.0272768
0.0285897
0.0300364
0.0314132
0.0323952
0.0325236
0.0311648
0.0275235
0.0201135
0.00754863
0.0078385
0.0207268
0.0284337
0.0322432
0.0337165
0.0336702
0.0327548
0.0314414
0.0300647
0.0288343
0.0278581
0.0271686
0.0267558
0.0265642
0.0265581
0.0267187
0.0270444
0.0275805
0.02837
0.0294215
0.0307014
0.0321027
0.0334178
0.0343148
0.0343247
0.0327964
0.0289097
0.0211001
0.00794833
0.00824493
0.021715
0.0298247
0.0338858
0.0355381
0.0356214
0.0348023
0.0335616
0.0322402
0.0310511
0.0301047
0.0294327
0.0290222
0.0288225
0.0288113
0.0289802
0.0293121
0.0298439
0.0306154
0.0316382
0.0328782
0.0342259
0.0354698
0.0362718
0.036153
0.0344467
0.0303082
0.0220964
0.00835952
0.00866094
0.0227088
0.0312213
0.0355388
0.0373781
0.0376008
0.036888
0.0357294
0.0344717
0.0333313
0.0324211
0.0317737
0.0313752
0.0311779
0.031166
0.0313362
0.0316647
0.0321833
0.03293
0.0339173
0.0351099
0.0363954
0.0375588
0.0382557
0.0379986
0.0361063
0.0317113
0.0230968
0.00878023
0.0090845
0.0237022
0.0326148
0.0371918
0.0392253
0.0395965
0.0389999
0.0379329
0.0367475
0.0356637
0.0347968
0.0341809
0.0338022
0.0336146
0.0336051
0.0337724
0.0340905
0.0345885
0.0353035
0.0362479
0.0373849
0.0385994
0.0396726
0.0402545
0.0398501
0.0377646
0.0331101
0.0240954
0.00920813
0.00951331
0.0246888
0.0339956
0.0388335
0.041067
0.0415954
0.0411245
0.0401586
0.0390546
0.0380356
0.0372197
0.0366423
0.0362903
0.0361181
0.0361132
0.0362747
0.0365766
0.0370473
0.0377235
0.0386171
0.0396899
0.0408242
0.0417975
0.0422549
0.0416946
0.0394102
0.034495
0.0250858
0.0096406
0.00994479
0.0256618
0.0353535
0.0404516
0.0428897
0.0435827
0.0432466
0.0423912
0.0413777
0.0404325
0.0396756
0.0391441
0.0388249
0.0386729
0.0386744
0.0388278
0.0391088
0.0395458
0.0401756
0.0410102
0.0420099
0.0430545
0.0439184
0.0442424
0.0435184
0.0410303
0.0358554
0.0260611
0.0100748
0.0103761
0.0266137
0.0366773
0.0420328
0.0446783
0.0455425
0.0453497
0.044614
0.0437004
0.0428378
0.0421483
0.04167
0.0413898
0.0412622
0.0412715
0.041415
0.0416707
0.0420678
0.0426436
0.0434106
0.044328
0.0452736
0.0460189
0.0462008
0.0453065
0.0426117
0.0371801
0.0270142
0.0105079
0.0108041
0.0275365
0.0379552
0.0435628
0.046417
0.0474578
0.0474159
0.0468087
0.0460042
0.0452333
0.0446196
0.0442018
0.0439663
0.0438669
0.0438855
0.0440175
0.0442438
0.0445947
0.0451091
0.0457998
0.0466258
0.0474631
0.048081
0.048113
0.047043
0.0441401
0.0384573
0.0279372
0.0109369
0.0112254
0.028422
0.0391751
0.045027
0.048089
0.0493103
0.0494261
0.0489556
0.0482691
0.0475986
0.047069
0.0467189
0.0465338
0.0464661
0.046495
0.046614
0.0468069
0.0471059
0.0475513
0.0481574
0.0488832
0.0496034
0.0500856
0.0499608
0.048711
0.0456008
0.0396747
0.0288219
0.0113588
0.0116364
0.0292617
0.0403242
0.04641
0.049677
0.0510811
0.0513601
0.0510338
0.0504734
0.0499119
0.0494742
0.0491985
0.0490688
0.049036
0.0490762
0.0491808
0.0493369
0.0495784
0.049948
0.0504614
0.0510785
0.0516734
0.0520125
0.0517254
0.0502934
0.0469788
0.0408199
0.0296597
0.0117705
0.0120333
0.0300471
0.04139
0.0476965
0.0511633
0.0527507
0.053197
0.0530211
0.0525943
0.0521493
0.0518108
0.0516157
0.0515459
0.0515508
0.0516032
0.0516922
0.0518081
0.0519873
0.0522746
0.0526882
0.0531889
0.053651
0.0538407
0.0533871
0.0517724
0.0482588
0.0418804
0.0304419
0.0121685
0.0124121
0.0307698
0.04236
0.0488713
0.0525303
0.0542994
0.0549154
0.0548948
0.0546077
0.0542859
0.0540528
0.0539436
0.0539378
0.0539827
0.0540479
0.0541201
0.0541933
0.0543059
0.0545054
0.0548127
0.0551903
0.0555134
0.0555487
0.0549261
0.0531304
0.0494257
0.0428439
0.0311599
0.0125491
0.0127688
0.0314218
0.0432222
0.0499194
0.0537607
0.0557076
0.0564937
0.0566316
0.0564889
0.0562956
0.0561731
0.0561541
0.0562155
0.0563021
0.0563804
0.0564352
0.0564633
0.056506
0.0566134
0.0568091
0.0570581
0.0572373
0.0571148
0.0563229
0.0543502
0.0504646
0.0436985
0.0318055
0.012908
0.0130994
0.0319953
0.0439651
0.0508269
0.0548377
0.0569562
0.0579106
0.058208
0.0582128
0.0581517
0.0581435
0.0582179
0.0583486
0.0584782
0.0585698
0.0586066
0.0585883
0.0585586
0.0585705
0.0586508
0.0587672
0.0587992
0.0585176
0.0575581
0.0554149
0.0513615
0.0444328
0.032371
0.0132407
0.0133999
0.0324834
0.0445784
0.0515808
0.0557456
0.0580269
0.0591452
0.0596012
0.0597543
0.0598275
0.0599358
0.0601054
0.0603067
0.0604797
0.0605847
0.0606031
0.0605376
0.0604342
0.0603487
0.0603111
0.0602927
0.0601762
0.0597363
0.0586135
0.0563088
0.0521032
0.0450363
0.0328494
0.0135425
0.0136664
0.0328795
0.0450527
0.0521691
0.0564701
0.0589025
0.060178
0.060789
0.0610892
0.0612966
0.0615219
0.0617872
0.0620591
0.0622754
0.0623936
0.0623935
0.0622808
0.0621035
0.06192
0.0617639
0.0616104
0.0613462
0.0607512
0.059472
0.0570176
0.0526779
0.0454995
0.0332347
0.0138091
0.0138951
0.033178
0.04538
0.0525817
0.0569983
0.0595676
0.0609906
0.0617506
0.0621942
0.0625336
0.0628745
0.0632344
0.0635761
0.063835
0.0639658
0.0639475
0.0637883
0.0635379
0.0632574
0.0629839
0.062697
0.0622886
0.0615444
0.0601183
0.0575286
0.0530754
0.0458143
0.0335216
0.0140363
0.0140825
0.0333742
0.0455538
0.0528101
0.0573193
0.0600087
0.0615668
0.062467
0.0630474
0.0635143
0.0639675
0.0644195
0.064829
0.0651291
0.0652721
0.065236
0.0650314
0.0647096
0.0643345
0.0639468
0.063531
0.0629846
0.0620999
0.0605392
0.0578311
0.0532873
0.0459743
0.0337054
0.0142207
0.0142336
0.0334643
0.045569
0.0528477
0.0574246
0.0602146
0.0618928
0.062921
0.063629
0.0642165
0.0647765
0.0653161
0.0657907
0.0661301
0.0662846
0.0662314
0.065983
0.0655927
0.0651271
0.0646305
0.0640925
0.0634174
0.062404
0.0607239
0.0579167
0.0533072
0.0459746
0.0337826
0.0143645
0.014353
0.0334454
0.0454224
0.0526901
0.057308
0.060177
0.0619573
0.0631003
0.0639751
0.0647031
0.0653604
0.0659597
0.0664688
0.066824
0.0669801
0.0669164
0.0666456
0.0662148
0.0656837
0.0650859
0.0644056
0.0635742
0.0624459
0.0606642
0.0577796
0.0531311
0.0458121
0.0337504
0.0144774
0.0144362
0.0333159
0.0451126
0.0523353
0.0569662
0.0598906
0.061756
0.0630964
0.0641173
0.0649593
0.0657008
0.0663568
0.0668994
0.0672711
0.0674299
0.0673559
0.0670626
0.066593
0.0660011
0.0653158
0.0645191
0.0635355
0.062221
0.0603552
0.0574166
0.052757
0.0454856
0.0336071
0.0145548
0.0144791
0.0330748
0.0446396
0.0517836
0.0563991
0.0593577
0.0614092
0.0628971
0.064032
0.0649664
0.0657794
0.0664861
0.0670597
0.067447
0.0676084
0.067525
0.0672105
0.0667052
0.0660591
0.0652993
0.0644079
0.0633061
0.0618399
0.059799
0.0568278
0.0521854
0.0449955
0.0333521
0.0145925
0.0144783
0.0327224
0.0440058
0.0510383
0.0556134
0.0586967
0.0608904
0.062483
0.0637048
0.0647126
0.0655844
0.066334
0.0669342
0.0673351
0.0674985
0.0674069
0.0670736
0.0665371
0.0658446
0.0650232
0.0640563
0.0628648
0.0612912
0.0591058
0.0560196
0.0514199
0.0443442
0.0329855
0.0145871
0.0144312
0.0322597
0.0432152
0.0501071
0.0546911
0.0579007
0.0601807
0.0618431
0.0631275
0.064191
0.0651088
0.0658924
0.0665137
0.066925
0.0670895
0.0669909
0.0666422
0.0660803
0.0653505
0.0644803
0.0634555
0.0621992
0.0605543
0.0582814
0.0550679
0.050468
0.043536
0.0325084
0.0145356
0.014339
0.0316863
0.0422749
0.0490147
0.0536805
0.0569479
0.0592697
0.0609717
0.0622968
0.063399
0.0643497
0.0651576
0.0657934
0.0662112
0.0663757
0.0662717
0.0659115
0.0653308
0.0645734
0.0636675
0.0626018
0.0613033
0.0596179
0.0573028
0.0540312
0.04935
0.0425779
0.0319223
0.0144372
0.0142262
0.0309844
0.041199
0.0478811
0.0525545
0.0558263
0.0581529
0.0598675
0.0612126
0.0623369
0.0633071
0.0641289
0.064772
0.065192
0.0653551
0.0652473
0.0648803
0.0642881
0.0635134
0.0625851
0.0614951
0.0601754
0.0584769
0.056157
0.0528815
0.0481932
0.0414839
0.0312076
0.0143181
0.0140879
0.0301685
0.0400503
0.0466728
0.0512972
0.05453
0.0568293
0.058532
0.0598773
0.0610072
0.0619833
0.0628084
0.0634509
0.0638682
0.0640284
0.0639187
0.0635497
0.062954
0.0621726
0.0612354
0.0601378
0.0588169
0.0571301
0.0548379
0.0516022
0.0469638
0.0403145
0.0303785
0.0141736
0.0139197
0.0292853
0.038867
0.0453703
0.0498999
0.0530571
0.0553007
0.0569684
0.0582944
0.0594135
0.060382
0.0611991
0.0618327
0.0622424
0.062398
0.0622884
0.0619227
0.0613318
0.0605548
0.0596225
0.0585336
0.057231
0.0555792
0.0533433
0.0501843
0.0456419
0.0391126
0.0294807
0.0139995
0.0137176
0.0283617
0.0376255
0.043962
0.0483584
0.0514083
0.0535701
0.0551806
0.0564683
0.0575603
0.0585072
0.0593049
0.0599209
0.0603175
0.0604666
0.0603594
0.0600027
0.0594253
0.0586642
0.0577507
0.0566868
0.0554216
0.0538271
0.0516739
0.0486234
0.0442155
0.0378543
0.0285436
0.0137915
0.0134769
0.027386
0.0363105
0.042441
0.0466712
0.0495852
0.0516405
0.0531724
0.0544029
0.0554516
0.0563627
0.0571291
0.0577184
0.0580958
0.0582364
0.058134
0.0577923
0.0572379
0.0565045
0.0556239
0.0546017
0.0533927
0.0518771
0.0498312
0.0469178
0.0426776
0.0365238
0.0275552
0.013545
0.0131925
0.0263495
0.0349119
0.0408031
0.0448379
0.0475896
0.0495146
0.0509467
0.0521013
0.0530899
0.053951
0.0546734
0.0552261
0.0555778
0.0557072
0.0556127
0.0552929
0.0547714
0.0540782
0.0532451
0.0522811
0.0511473
0.0497318
0.0478171
0.0450672
0.0410239
0.0351109
0.0265067
0.0132551
0.012859
0.0252453
0.0334227
0.0390457
0.0428581
0.0454222
0.0471937
0.0485046
0.0495644
0.0504761
0.0512721
0.0519371
0.0524425
0.0527604
0.0528752
0.0527926
0.0525027
0.052025
0.0513854
0.050615
0.0497261
0.0486865
0.0473924
0.0456322
0.0430712
0.0392516
0.0336086
0.0253915
0.0129163
0.0124701
0.0240679
0.0318379
0.0371662
0.0407308
0.0430823
0.0446766
0.0458448
0.0467903
0.0476078
0.0483227
0.0489156
0.0493614
0.049635
0.0497307
0.0496657
0.0494159
0.0489947
0.0484232
0.0477311
0.0469349
0.046009
0.044858
0.0432757
0.0409286
0.0373583
0.0320116
0.024204
0.0125224
0.0120185
0.0228123
0.0301526
0.0351613
0.0384528
0.0405665
0.0419595
0.0429626
0.0437738
0.0444786
0.0450953
0.0455997
0.0459706
0.0461858
0.0462557
0.046217
0.0460207
0.0456715
0.0451842
0.0445876
0.0439023
0.0431102
0.0421244
0.0407443
0.0386362
0.0353405
0.030315
0.022939
0.0120662
0.0114959
0.021473
0.0283617
0.0330257
0.0360184
0.0378681
0.0390347
0.0398495
0.0405052
0.041078
0.0415779
0.0419745
0.0422507
0.0423863
0.0424189
0.0424216
0.0422988
0.0420412
0.0416566
0.0411739
0.0406187
0.0399816
0.0391843
0.0380313
0.0361884
0.0331928
0.0285135
0.021591
0.0115393
0.0108918
0.0200438
0.0264582
0.0307512
0.0334181
0.0349769
0.0358911
0.0364932
0.0369712
0.0373913
0.0377537
0.0380189
0.0381738
0.0381942
0.0381685
0.0382409
0.0382237
0.0380835
0.0378242
0.0374755
0.0370709
0.0366109
0.0360263
0.0351265
0.0335755
0.030907
0.0266001
0.0201536
0.0109313
0.0101932
0.0185165
0.0244323
0.0283255
0.0306381
0.0318788
0.0325144
0.0328789
0.033156
0.0334014
0.0336038
0.0337081
0.0337038
0.0335448
0.0334189
0.0336174
0.033762
0.0337747
0.0336684
0.0334753
0.0332431
0.0329833
0.0326364
0.0320157
0.0307837
0.0284706
0.024565
0.0186185
0.0102292
0.00938291
0.0168803
0.0222693
0.0257296
0.0276592
0.0285574
0.028891
0.0289942
0.0290468
0.0290958
0.0291155
0.0290236
0.0288017
0.0283328
0.0280095
0.0284639
0.02888
0.0290971
0.029176
0.0291605
0.0291224
0.0290861
0.0290007
0.0286824
0.0277937
0.0258646
0.0223932
0.0169746
0.00941597
0.00843759
0.0151196
0.0199466
0.0229355
0.0244573
0.0249993
0.0250193
0.0248454
0.0246544
0.0244884
0.0243064
0.0239858
0.0234598
0.0224213
0.0215317
0.0226726
0.0235759
0.0240696
0.024363
0.0245432
0.0247184
0.0249251
0.0251167
0.0251126
0.0245808
0.0230607
0.0200622
0.0152066
0.00846879
0.00732304
0.0132107
0.0174246
0.0198973
0.0210009
0.0212033
0.0209332
0.0204967
0.0200647
0.019684
0.0193001
0.0187639
0.0178725
0.0151363
0.0136454
0.0157432
0.0180216
0.0188476
0.0193433
0.0197219
0.0201127
0.0205608
0.0210158
0.0213028
0.0211119
0.0200119
0.0175321
0.013291
0.00735464
0.0059955
0.0111184
0.0146252
0.016531
0.0172444
0.0171938
0.0167438
0.016147
0.0155601
0.0150377
0.0143935
0.0135899
0.0122268
0.010645
0.00954434
0.0108815
0.0124212
0.0136416
0.0144021
0.0150397
0.015578
0.0161845
0.0168027
0.017272
0.0173377
0.0166321
0.0147241
0.0111932
0.0060325
0.0044581
0.00878303
0.0113037
0.012565
0.0129572
0.0128111
0.0123618
0.011658
0.0109876
0.0104158
0.0100447
0.00964427
0.00889757
0.00753905
0.006471
0.00774281
0.00896503
0.00962166
0.0100001
0.0103799
0.010969
0.0116626
0.0123909
0.0128551
0.0130218
0.0126442
0.011393
0.00885464
0.00451667
0.00432762
0.0068596
0.00653762
0.00688706
0.00692534
0.00690321
0.00686229
0.00696766
0.00707225
0.00711513
0.00705525
0.00682494
0.0062363
0.00551124
0.00466721
0.00567171
0.00626101
0.00677906
0.00698563
0.00703585
0.00699159
0.00689109
0.00679904
0.00687566
0.00694282
0.00691729
0.00657324
0.00687893
0.00449219
0.00385602
0.00432691
0.00463755
0.00477611
0.00481817
0.0048149
0.00474632
0.00463618
0.00448664
0.00429611
0.00406594
0.00376527
0.00334072
0.00280266
0.00256225
0.00304997
0.00354291
0.00391182
0.00418889
0.00441486
0.00460028
0.00474227
0.00484059
0.00491681
0.00493549
0.00487421
0.0047203
0.00443928
0.00397584
0.00359321
0.00492317
0.00557117
0.00584244
0.00592926
0.00589812
0.00579736
0.00563336
0.00544102
0.00519098
0.00489105
0.00454344
0.0040819
0.00374006
0.00368066
0.00383415
0.00427108
0.00467998
0.00501547
0.0052895
0.00554758
0.00575082
0.00590775
0.00602528
0.00605887
0.00595586
0.00567018
0.00505065
0.00371438
0.00330836
0.00491668
0.00582777
0.00630154
0.0065199
0.00655697
0.00647449
0.0062914
0.00603817
0.00572635
0.00535614
0.00491798
0.00444712
0.00419901
0.00421304
0.00423311
0.00463819
0.00508187
0.00551458
0.0058718
0.00619709
0.00645712
0.0066395
0.00673113
0.00668887
0.00645466
0.00596624
0.00507149
0.00342871
0.00304768
0.00478618
0.0058415
0.0064541
0.00678249
0.00689739
0.00685639
0.00668221
0.00640231
0.00604153
0.00561136
0.00512351
0.00460064
0.00440164
0.00446202
0.00440875
0.00479775
0.00528876
0.0058031
0.00622732
0.00659671
0.00687915
0.007052
0.00709577
0.00697296
0.00662844
0.00599669
0.00494049
0.00316089
0.00283759
0.00470442
0.00582491
0.00651667
0.00691535
0.00708713
0.00708261
0.00692371
0.00663403
0.00623998
0.0057599
0.00518055
0.00464928
0.00448353
0.0045744
0.00448033
0.00486228
0.00539956
0.00598002
0.00645451
0.00685086
0.00713932
0.00729508
0.00729804
0.00711733
0.00670228
0.00598561
0.00484214
0.00294015
0.0026783
0.0046734
0.0058399
0.00656415
0.00699164
0.00718891
0.00720228
0.00705184
0.0067572
0.00634189
0.00582518
0.00520845
0.00463972
0.00449665
0.00460735
0.00449129
0.00486911
0.0054704
0.0060673
0.00657539
0.00698724
0.00727742
0.00742312
0.00740586
0.00719951
0.00675508
0.00599869
0.00478899
0.00277231
0.00256261
0.00469468
0.00590869
0.00663088
0.00705509
0.00724897
0.00725885
0.00710475
0.00680312
0.00637304
0.00583049
0.00517915
0.00459329
0.00447005
0.00459246
0.00446649
0.00483492
0.00547106
0.00609069
0.00661931
0.00704112
0.00733575
0.00748409
0.00746935
0.00726675
0.0068245
0.0060567
0.00480579
0.00264954
0.00248254
0.00475711
0.00595364
0.00672208
0.00712714
0.00729486
0.00728153
0.00711061
0.00679701
0.00635496
0.00579492