/*--------------------------------*- C++ -*----------------------------------*\
| =========                 |                                                 |
| \\      /  F ield         | OpenFOAM: The Open Source CFD Toolbox           |
|  \\    /   O peration     | Version:  5.x                                   |
|   \\  /    A nd           | Web:      www.OpenFOAM.org                      |
|    \\/     M anipulation  |                                                 |
\*---------------------------------------------------------------------------*/
/*   Windows 32 and 64 bit porting by blueCAPE: http://www.bluecape.com.pt   *\
|  Based on Windows porting (2.0.x v4) by Symscape: http://www.symscape.com   |
\*---------------------------------------------------------------------------*/
FoamFile
{
    version     2.0;
    format      ascii;
    class       volScalarField;
    location    "2.7";
    object      epsilon;
}
// * * * * * * * * * * * * * * * * * * * * * * * * * * * * * * * * * * * * * //

dimensions      [0 2 -3 0 0 0 0];

internalField   nonuniform List<scalar> 
400055
(
0.00223471
0.00321453
0.00420775
0.00451879
0.00439279
0.00416885
0.00393051
0.00369136
0.00347989
0.00331216
0.003192
0.00311985
0.00308838
0.00307261
0.0030738
0.00309891
0.00313167
0.00317708
0.00325255
0.0033742
0.00354129
0.00374809
0.00398086
0.00421109
0.00442773
0.0045461
0.00421285
0.00322516
0.00224664
0.00180622
0.00263679
0.00361394
0.00394684
0.0039609
0.00385471
0.00368264
0.0035016
0.00335517
0.00324521
0.00316305
0.00310972
0.00308282
0.00306003
0.00305499
0.00307735
0.00310826
0.00314632
0.00320007
0.00328467
0.00339553
0.00353581
0.00371017
0.00387386
0.00397962
0.00395959
0.00361264
0.00263988
0.00181994
0.0019831
0.00312743
0.00418629
0.00458911
0.00469783
0.00467768
0.00458794
0.00448126
0.00435939
0.00427005
0.00419466
0.00414212
0.00411681
0.00408631
0.00407722
0.00409986
0.00413366
0.0041738
0.00422554
0.0043079
0.00440243
0.00451458
0.00461599
0.00469492
0.00471953
0.00460193
0.00418293
0.00311789
0.00200165
0.00207114
0.00355251
0.00458422
0.00503816
0.00521923
0.00527932
0.00525467
0.0052224
0.00516441
0.00513756
0.00510105
0.00507465
0.00507598
0.00505166
0.0050399
0.00505646
0.00507707
0.00509074
0.00511689
0.00516863
0.00520538
0.0052516
0.00528766
0.00528957
0.00524479
0.00505038
0.0045787
0.00353579
0.0021081
0.0021098
0.00388957
0.00488735
0.00536901
0.00557904
0.00569229
0.0056916
0.00572339
0.00569596
0.00570943
0.00569361
0.00567775
0.00570554
0.00569127
0.00568125
0.005675
0.0056801
0.005671
0.00568344
0.00572889
0.00572444
0.0057521
0.00575179
0.0056941
0.00561393
0.00538151
0.00487831
0.00386526
0.00213312
0.00217979
0.00415267
0.00515386
0.00562686
0.00581725
0.00595147
0.00591492
0.00601058
0.00599969
0.00603596
0.00602941
0.00600014
0.00606697
0.00605715
0.00604432
0.00599014
0.00598824
0.00597761
0.00598353
0.00603708
0.00597979
0.00604754
0.00605157
0.0059483
0.00587346
0.00564186
0.00514374
0.00412208
0.00211807
0.00233817
0.00443034
0.00540205
0.00582929
0.00595533
0.00607925
0.00594855
0.0061133
0.00612795
0.00617393
0.00616535
0.00604842
0.00621509
0.00620934
0.00619148
0.00599564
0.00600092
0.00610885
0.00611341
0.00616647
0.0060007
0.00617214
0.00623396
0.00608154
0.00605088
0.00584848
0.00539437
0.00439805
0.00225255
0.0027627
0.00475137
0.00563102
0.00597238
0.00600513
0.00607009
0.00584947
0.00604556
0.00608541
0.00617155
0.00614957
0.0056912
0.00617891
0.00617897
0.0061571
0.00551358
0.00553941
0.00619954
0.00621925
0.00622503
0.0058515
0.00613627
0.0268994
0.00611159
0.00615687
0.00599484
0.00562831
0.00472735
0.00272181
0.00343862
0.00507893
0.00583066
0.00603095
0.005998
0.00585638
0.00596388
0.00572218
0.00572286
0.00608159
0.0060933
0.00622474
0.00610274
0.00600472
0.00600976
0.00567371
0.0057216
0.0270526
0.0270656
0.026692
0.00597632
0.00583497
0.0273079
0.00606627
0.00619579
0.00605119
0.00583182
0.00506376
0.00341373
0.00398802
0.00537043
0.00599298
0.00594567
0.00613829
0.00609377
0.00610509
0.00592242
0.00589115
0.0271404
0.0272328
0.00619716
0.0270686
0.00613084
0.00613455
0.00591978
0.00603571
0.0275157
0.0273262
0.0268853
0.00614717
0.0060197
0.0278201
0.00619044
0.00616391
0.00595602
0.00599257
0.00536416
0.00396786
0.00443623
0.00562115
0.00612064
0.00616857
0.0062029
0.027123
0.0060984
0.00617952
0.00610814
0.0292019
0.0291768
0.00626067
0.0287777
0.00616779
0.00616366
0.00613826
0.0284564
0.00620801
0.00610591
0.00608618
0.00614774
0.00625305
0.0281907
0.00621691
0.00621651
0.00617515
0.00611889
0.00562536
0.004419
0.00481348
0.00583494
0.00621087
0.0277463
0.02928
0.0293317
0.0287108
0.0277683
0.0268865
0.0294856
0.0290729
0.0060811
0.028189
0.00594725
0.00593641
0.0266013
0.0283066
0.0273026
0.00619438
0.00625733
0.0272138
0.0281311
0.0291138
0.029617
0.0294113
0.0277604
0.00620828
0.00585122
0.0047967
0.005139
0.00602526
0.0270915
0.0311744
0.0331282
0.0334032
0.0327813
0.0318032
0.0307782
0.0299457
0.0291596
0.0284244
0.0280111
0.0275612
0.0274363
0.027677
0.0281415
0.028657
0.0293411
0.0301904
0.0311807
0.032215
0.0331509
0.0336811
0.0332795
0.0311913
0.0270581
0.00604589
0.00511926
0.00542358
0.00618916
0.0300582
0.0348414
0.0371835
0.0376557
0.037086
0.036069
0.0349609
0.0339321
0.0330516
0.0323365
0.0317731
0.0313864
0.0312492
0.0314647
0.031921
0.0325666
0.0333699
0.0343276
0.0354137
0.0365316
0.0375019
0.0379703
0.0373566
0.034866
0.0299901
0.00619015
0.00539671
0.00567295
0.026878
0.0333278
0.0386789
0.0414177
0.0421055
0.0416005
0.0405518
0.0393664
0.0382462
0.037279
0.0364913
0.0358787
0.0354599
0.0353153
0.0355498
0.0360523
0.0367549
0.0376388
0.0386918
0.0398712
0.041068
0.0420664
0.0424592
0.0416164
0.0387124
0.033164
0.00624423
0.00563389
0.00590244
0.0281834
0.0367185
0.0426633
0.045814
0.046734
0.0463043
0.0452286
0.0439671
0.0427589
0.0417095
0.0408533
0.0401955
0.039748
0.0395985
0.0398548
0.040398
0.0411548
0.0421122
0.0432544
0.0445276
0.0458027
0.0468247
0.047132
0.0460429
0.0427149
0.0366293
0.028001
0.00584039
0.0060884
0.0310193
0.0402918
0.0467912
0.0503652
0.0515334
0.0511891
0.0500898
0.0487521
0.0474547
0.0463237
0.0454024
0.0447015
0.0442295
0.0440768
0.0443543
0.0449352
0.0457443
0.0467733
0.0480039
0.0493727
0.0507268
0.0517691
0.0519809
0.050629
0.0468621
0.0402041
0.0308766
0.00602279
0.00620328
0.0340596
0.0440013
0.0510604
0.0550707
0.0565017
0.056252
0.055132
0.0537167
0.0523277
0.0511146
0.0501304
0.0493889
0.0488957
0.0487413
0.0490396
0.0496563
0.0505158
0.0516152
0.0529352
0.0544021
0.0558371
0.056897
0.0570041
0.0553739
0.0511539
0.0439144
0.0338869
0.0061542
0.00620859
0.0372781
0.0478543
0.0554762
0.0599344
0.0616415
0.0614948
0.0603562
0.0588612
0.0573775
0.0560813
0.0550358
0.0542565
0.0537449
0.0535903
0.053909
0.0545595
0.0554679
0.0566375
0.0580484
0.0596165
0.0611345
0.0622098
0.0622034
0.060281
0.055596
0.047776
0.0371008
0.00617528
0.027823
0.0408481
0.0518786
0.0600499
0.064964
0.0669584
0.0669222
0.0657662
0.0641885
0.0626068
0.0612261
0.0601212
0.0593076
0.0587807
0.0586271
0.0589654
0.0596477
0.0606032
0.0618424
0.0633462
0.0650189
0.0666223
0.0677112
0.0675834
0.0653574
0.0601981
0.051809
0.040659
0.0275674
0.0310682
0.0445558
0.0560866
0.0647962
0.0701704
0.0724608
0.0725413
0.0713681
0.069704
0.0680205
0.0665545
0.0653924
0.0645482
0.0640093
0.063858
0.0642147
0.0649262
0.0659267
0.0672351
0.0688339
0.0706147
0.0723058
0.0734069
0.0731514
0.0706136
0.0649744
0.0560255
0.0443516
0.0307393
0.0345212
0.0484825
0.0605051
0.0697349
0.0755674
0.0781593
0.0783606
0.0771692
0.0754143
0.0736254
0.0720736
0.0708572
0.0699868
0.0694394
0.0692914
0.0696647
0.0704023
0.0714453
0.0728226
0.0745181
0.0764102
0.0781917
0.0793046
0.0789174
0.0760629
0.0699446
0.0604508
0.0482637
0.0341492
0.0381366
0.0526855
0.0651699
0.07489
0.0811717
0.0840664
0.0843902
0.0831782
0.0813276
0.0794296
0.0777921
0.0765249
0.075633
0.0750806
0.0749368
0.0753247
0.0760852
0.077168
0.0786132
0.0804069
0.0824131
0.0842879
0.0854138
0.0848934
0.081722
0.0751336
0.0651209
0.0524492
0.0377269
0.0418888
0.0572276
0.0701241
0.0802904
0.0870031
0.0901962
0.0906412
0.0894046
0.0874529
0.0854423
0.0837196
0.0824057
0.0814975
0.0809436
0.0808049
0.0812052
0.081985
0.0831049
0.0846167
0.086509
0.0886321
0.0906042
0.0917463
0.091094
0.0876107
0.0805708
0.0700804
0.0569714
0.041443
0.0457702
0.0620491
0.0754185
0.0859703
0.0930846
0.0965652
0.0971262
0.0958591
0.0938
0.0916735
0.0898668
0.0885106
0.0875914
0.0870396
0.0869066
0.0873176
0.0881137
0.0892676
0.0908436
0.0928344
0.0950775
0.0971521
0.0983157
0.0975369
0.093753
0.0862909
0.0753826
0.0617693
0.0452899
0.0497832
0.0670943
0.081129
0.0919702
0.0994424
0.103192
0.103859
0.102553
0.10038
0.0981339
0.0962447
0.0948508
0.0939257
0.0933797
0.093254
0.0936744
0.0944839
0.095668
0.0973053
0.0993942
0.101761
0.103945
0.105138
0.104242
0.100177
0.0923341
0.081105
0.0667892
0.0492699
0.0539355
0.0723735
0.0873351
0.0983341
0.106107
0.110096
0.110853
0.109498
0.107203
0.104835
0.102865
0.101438
0.100512
0.0999759
0.0998595
0.100289
0.101109
0.102319
0.104014
0.1062
0.108695
0.110996
0.11223
0.111233
0.106914
0.0987454
0.0873256
0.072042
0.05339
0.0582382
0.077903
0.0938946
0.10511
0.113115
0.117301
0.118128
0.116709
0.114283
0.111789
0.109739
0.108284
0.107362
0.106841
0.106736
0.107174
0.108001
0.109233
0.110981
0.113266
0.115893
0.118322
0.119611
0.118535
0.114001
0.105575
0.0939011
0.0775437
0.0576584
0.0627035
0.0837031
0.100811
0.112386
0.120507
0.124835
0.1257
0.1242
0.121633
0.119008
0.11688
0.1154
0.114489
0.113987
0.113898
0.114344
0.115175
0.116423
0.118221
0.120602
0.123369
0.125939
0.127302
0.126175
0.121481
0.112911
0.100835
0.0833145
0.0620833
0.0673441
0.0897972
0.108107
0.120292
0.128331
0.132726
0.133591
0.131988
0.129268
0.126506
0.1243
0.1228
0.121904
0.121428
0.121358
0.121812
0.122643
0.123901
0.125744
0.128223
0.131137
0.133864
0.135324
0.134184
0.1294
0.120889
0.108148
0.0893773
0.0666724
0.072173
0.0962098
0.11581
0.128762
0.136627
0.141008
0.141824
0.140091
0.137201
0.134297
0.132013
0.130497
0.129623
0.129177
0.12913
0.129591
0.130417
0.131681
0.133564
0.136141
0.139211
0.142113
0.1437
0.142595
0.137799
0.129422
0.115867
0.0957573
0.0714342
0.0772022
0.102967
0.123948
0.137733
0.145462
0.149722
0.150425
0.148528
0.145449
0.142394
0.140032
0.138505
0.137658
0.137248
0.137228
0.137695
0.138513
0.139773
0.141691
0.144367
0.147606
0.150705
0.152455
0.151449
0.14675
0.138455
0.12402
0.102481
0.0763785
0.0824429
0.110093
0.132555
0.147217
0.154952
0.158916
0.159422
0.157318
0.154029
0.150813
0.14837
0.146837
0.146024
0.145656
0.145666
0.146139
0.146941
0.148191
0.150137
0.152915
0.156335
0.159656
0.161614
0.160792
0.156376
0.148002
0.132638
0.109574
0.0815167
0.0879048
0.117616
0.141663
0.157245
0.165282
0.168637
0.168846
0.166482
0.162955
0.159566
0.157043
0.155507
0.154734
0.154416
0.154461
0.154936
0.155714
0.156945
0.158915
0.161798
0.165412
0.168988
0.171208
0.170671
0.166836
0.158095
0.141755
0.117063
0.0868613
0.0935959
0.12556
0.151306
0.16785
0.176241
0.178915
0.178727
0.176042
0.172245
0.168669
0.166062
0.164528
0.163803
0.163543
0.163626
0.164099
0.164846
0.166048
0.168037
0.171027
0.174854
0.17872
0.181268
0.181118
0.177921
0.168766
0.151405
0.124974
0.0924254
0.0995221
0.133952
0.161521
0.179068
0.187824
0.189828
0.189109
0.186022
0.181914
0.178134
0.175442
0.173914
0.173245
0.17305
0.173174
0.173641
0.174347
0.175512
0.177515
0.180617
0.184677
0.188875
0.191836
0.192222
0.189631
0.180053
0.161625
0.133331
0.0982211
0.105687
0.142818
0.172344
0.190937
0.200051
0.201511
0.200039
0.196448
0.191981
0.187977
0.185193
0.183678
0.183076
0.182955
0.183123
0.183577
0.184231
0.185349
0.187361
0.190584
0.194898
0.199481
0.202959
0.204137
0.201987
0.191992
0.17245
0.142156
0.104259
0.112093
0.152183
0.183811
0.203495
0.212953
0.214155
0.211563
0.207346
0.202462
0.198209
0.195331
0.193834
0.19331
0.193273
0.193488
0.193922
0.194513
0.195574
0.197593
0.200942
0.205538
0.210563
0.214679
0.216968
0.215022
0.204623
0.183916
0.151471
0.110547
0.118736
0.162072
0.19596
0.216783
0.226567
0.227507
0.223705
0.218746
0.213378
0.208847
0.205869
0.2044
0.203968
0.20403
0.204294
0.2047
0.205213
0.206204
0.208225
0.211709
0.216619
0.222156
0.227033
0.230502
0.22877
0.217985
0.196062
0.161299
0.11709
0.12561
0.172508
0.208827
0.230842
0.240927
0.241559
0.236555
0.230693
0.224751
0.219908
0.216824
0.215396
0.215079
0.215259
0.21558
0.215947
0.216361
0.217265
0.219279
0.222906
0.228164
0.234304
0.240127
0.244732
0.243265
0.232118
0.208922
0.171659
0.123886
0.132705
0.183511
0.22245
0.245711
0.256068
0.256328
0.250283
0.24323
0.236608
0.23141
0.228218
0.226853
0.226689
0.227021
0.227411
0.227725
0.228008
0.228791
0.23078
0.234555
0.240201
0.247057
0.254162
0.259678
0.258541
0.247059
0.222533
0.18257
0.130928
0.140004
0.195101
0.236863
0.26143
0.272027
0.271842
0.264967
0.2564
0.24898
0.243381
0.240083
0.238822
0.238877
0.239422
0.239901
0.240141
0.240238
0.240837
0.242762
0.246682
0.252764
0.260447
0.269051
0.275364
0.27463
0.262846
0.236928
0.194048
0.138198
0.147486
0.207292
0.2521
0.278038
0.288838
0.288121
0.280347
0.270242
0.261909
0.255858
0.252471
0.251393
0.251782
0.252637
0.253235
0.253376
0.253194
0.253498
0.255282
0.259329
0.2659
0.274548
0.284625
0.291808
0.291564
0.279515
0.252142
0.206106
0.145672
0.155124
0.220097
0.268192
0.295569
0.306531
0.305189
0.29642
0.284888
0.275451
0.268898
0.265469
0.264716
0.265627
0.266997
0.267791
0.267771
0.267115
0.266925
0.268428
0.272555
0.279676
0.289535
0.300882
0.309031
0.309372
0.297101
0.268206
0.218758
0.153317
0.162887
0.233526
0.285167
0.314057
0.325133
0.323062
0.31319
0.300522
0.289686
0.282588
0.279213
0.279055
0.280672
0.282351
0.283263
0.283147
0.282215
0.281411
0.282341
0.286453
0.29416
0.305368
0.317826
0.327048
0.328078
0.315634
0.28515
0.232017
0.16109
0.170736
0.247585
0.303052
0.333529
0.344665
0.341753
0.330661
0.31678
0.304691
0.297029
0.293946
0.294387
0.296423
0.298397
0.299427
0.299214
0.298018
0.296845
0.297305
0.301147
0.309498
0.321815
0.33546
0.345872
0.347705
0.335144
0.303004
0.245896
0.16894
0.178633
0.262274
0.32187
0.354008
0.365143
0.361266
0.348831
0.333655
0.320623
0.312473
0.309562
0.310384
0.312829
0.315106
0.316259
0.315945
0.314472
0.312928
0.31306
0.316842
0.325616
0.338863
0.35378
0.365507
0.368267
0.355653
0.321793
0.260405
0.176813
0.186535
0.277589
0.341639
0.375507
0.386571
0.3816
0.367696
0.351139
0.337142
0.328593
0.325799
0.327007
0.329875
0.332465
0.333744
0.333324
0.331561
0.329622
0.329403
0.333107
0.342295
0.356501
0.372781
0.385952
0.389771
0.377179
0.341534
0.275552
0.184655
0.194408
0.293516
0.362371
0.398033
0.408947
0.402741
0.387241
0.369219
0.354228
0.345289
0.342624
0.344236
0.347541
0.350454
0.351864
0.351334
0.349265
0.346905
0.346309
0.349914
0.35951
0.374711
0.392447
0.407196
0.412216
0.399729
0.362234
0.291342
0.192425
0.202226
0.310037
0.38407
0.42158
0.432253
0.42467
0.407445
0.387876
0.371862
0.362536
0.360014
0.362044
0.3658
0.369047
0.370594
0.369951
0.367559
0.364756
0.363757
0.36724
0.377239
0.39347
0.412753
0.429218
0.435588
0.423294
0.383887
0.307772
0.200097
0.209984
0.327132
0.406727
0.446132
0.456462
0.447354
0.428277
0.407084
0.390019
0.380308
0.377939
0.380398
0.384618
0.388211
0.389903
0.38914
0.386411
0.383144
0.38172
0.385059
0.395454
0.412748
0.433664
0.451981
0.459854
0.447849
0.406473
0.324836
0.207676
0.217704
0.344788
0.430319
0.471658
0.481529
0.470747
0.449695
0.426807
0.408672
0.398579
0.396368
0.39926
0.403951
0.407902
0.409743
0.408856
0.405779
0.402036
0.400169
0.403346
0.414129
0.432508
0.455136
0.475432
0.484958
0.473351
0.429963
0.34252
0.215195
0.22544
0.363017
0.454802
0.498101
0.507392
0.494785
0.471646
0.447008
0.427795
0.417326
0.415271
0.418588
0.42375
0.428065
0.430056
0.429039
0.42561
0.421386
0.419073
0.422078
0.433235
0.452708
0.477108
0.499498
0.510824
0.499737
0.454313
0.36081
0.222726
0.233315
0.381872
0.480112
0.525374
0.533955
0.519381
0.494059
0.467639
0.447361
0.436536
0.434629
0.438344
0.443958
0.448629
0.450764
0.449618
0.445842
0.441152
0.438411
0.44124
0.452745
0.473296
0.499502
0.524077
0.537346
0.526911
0.479461
0.379707
0.230421
0.241636
0.401444
0.506167
0.553343
0.561085
0.544414
0.516841
0.48864
0.46735
0.456217
0.454451
0.458507
0.464519
0.469513
0.471778
0.470506
0.466409
0.461302
0.458185
0.460837
0.472634
0.494209
0.522215
0.549041
0.564382
0.554741
0.505319
0.399213
0.238695
0.250267
0.42209
0.532926
0.581849
0.5886
0.569724
0.539868
0.509941
0.487751
0.476416
0.474809
0.479113
0.485406
0.490639
0.493002
0.491621
0.48727
0.481859
0.478454
0.480908
0.49289
0.515374
0.545119
0.574227
0.59175
0.583072
0.531833
0.419593
0.247124
0.256907
0.442702
0.560895
0.610909
0.616351
0.595161
0.563036
0.531508
0.508623
0.497287
0.495916
0.500352
0.50671
0.51201
0.514395
0.512957
0.508508
0.503
0.499422
0.501602
0.513573
0.536761
0.568121
0.599501
0.619325
0.612015
0.559575
0.43953
0.253647
0.262653
0.461446
0.587314
0.640285
0.6448
0.621132
0.586663
0.553645
0.530302
0.519193
0.518128
0.522709
0.528971
0.534039
0.536283
0.534921
0.530664
0.525217
0.521438
0.523282
0.535022
0.558687
0.591563
0.625289
0.647497
0.640843
0.585509
0.457904
0.259395
0.268311
0.479821
0.611975
0.666097
0.669574
0.643935
0.607518
0.573376
0.55022
0.540551
0.541585
0.54723
0.553652
0.558389
0.560337
0.559151
0.555164
0.549517
0.544645
0.544333
0.55457
0.577986
0.611923
0.647533
0.671693
0.666198
0.609881
0.476131
0.265081
0.273539
0.498136
0.6361
0.690647
0.692232
0.664145
0.625827
0.590902
0.568246
0.560064
0.563002
0.571094
0.579723
0.586029
0.588651
0.586674
0.581041
0.573129
0.565755
0.563501
0.572212
0.59509
0.629779
0.667274
0.693885
0.690323
0.63375
0.494397
0.270311
0.278108
0.515584
0.659506
0.714183
0.713664
0.683043
0.642935
0.607495
0.585645
0.579152
0.584062
0.59412
0.604322
0.611695
0.614682
0.612254
0.605465
0.59592
0.586539
0.582266
0.589244
0.611273
0.646444
0.685707
0.714842
0.713423
0.656863
0.511769
0.274895
0.28181
0.531557
0.681221
0.736208
0.733543
0.700518
0.658846
0.62319
0.602461
0.597926
0.604965
0.616796
0.62825
0.63638
0.639577
0.636868
0.629249
0.618394
0.607194
0.600743
0.605705
0.626552
0.661888
0.702679
0.734225
0.735015
0.67827
0.527685
0.278626
0.284544
0.545629
0.700468
0.755697
0.75127
0.716063
0.673106
0.6376
0.618335
0.616005
0.625244
0.63881
0.651431
0.660256
0.663639
0.660687
0.652324
0.640252
0.627264
0.618556
0.621238
0.640539
0.675653
0.71768
0.751405
0.75405
0.697216
0.541692
0.281401
0.286147
0.557413
0.716698
0.771974
0.765885
0.728983
0.685258
0.65028
0.632799
0.632886
0.644395
0.659678
0.673419
0.682842
0.686382
0.683231
0.674231
0.660993
0.646233
0.635188
0.635362
0.652781
0.687267
0.730005
0.765458
0.76986
0.713134
0.553407
0.28306
0.286536
0.566567
0.729428
0.784473
0.776875
0.738658
0.694626
0.660729
0.645457
0.648114
0.661914
0.678866
0.693669
0.703639
0.707323
0.703992
0.694406
0.680055
0.663568
0.650156
0.647659
0.662756
0.69607
0.739062
0.775854
0.781878
0.725555
0.56248
0.283522
0.285658
0.572724
0.738208
0.792745
0.783768
0.744598
0.700772
0.668442
0.655744
0.661226
0.677352
0.695882
0.711666
0.72213
0.72594
0.722443
0.712309
0.696917
0.678786
0.662964
0.657556
0.669978
0.701626
0.744366
0.782142
0.789672
0.734035
0.568555
0.28274
0.283492
0.575577
0.742564
0.796357
0.78619
0.746449
0.703286
0.672984
0.663232
0.671674
0.69012
0.710219
0.726924
0.737818
0.741728
0.738076
0.72744
0.71105
0.691282
0.673073
0.664628
0.674014
0.703546
0.745584
0.783975
0.792824
0.738115
0.571336
0.280691
0.280049
0.574853
0.742091
0.794869
0.783777
0.743937
0.701913
0.67405
0.667501
0.67899
0.699709
0.72125
0.738781
0.750076
0.754071
0.750256
0.739138
0.721837
0.700553
0.680012
0.668463
0.674575
0.701598
0.742468
0.78101
0.790914
0.737406
0.570565
0.277389
0.275369
0.570347
0.736458
0.787931
0.776197
0.736786
0.696445
0.671421
0.668271
0.68278
0.705617
0.728457
0.746731
0.758367
0.762421
0.758457
0.746907
0.728766
0.706109
0.683405
0.668801
0.671465
0.695591
0.734761
0.772932
0.783607
0.731585
0.566044
0.272865
0.269509
0.561926
0.725436
0.775299
0.763219
0.724771
0.686637
0.664862
0.665317
0.682739
0.707457
0.731383
0.750264
0.762189
0.766284
0.76218
0.750253
0.73141
0.707595
0.682975
0.66544
0.664471
0.6853
0.722257
0.759526
0.770666
0.720427
0.557643
0.267172
0.262545
0.549548
0.708929
0.756857
0.744728
0.707749
0.672242
0.654079
0.658394
0.67861
0.704932
0.729708
0.749036
0.761174
0.765327
0.761076
0.748844
0.729489
0.704747
0.67849
0.658158
0.65332
0.670497
0.704824
0.74068
0.75198
0.703836
0.545321
0.26038
0.254559
0.533283
0.686992
0.73265
0.720729
0.685632
0.653188
0.639925
0.647318
0.670158
0.69784
0.723227
0.74281
0.755161
0.759385
0.755001
0.742491
0.722795
0.697408
0.669736
0.646782
0.638739
0.651079
0.682373
0.716403
0.727596
0.681867
0.529144
0.252567
0.245648
0.513306
0.659852
0.702886
0.691353
0.658405
0.631652
0.622613
0.631973
0.657268
0.686097
0.711744
0.73155
0.744093
0.748387
0.743896
0.731158
0.711176
0.685455
0.656646
0.631212
0.621166
0.629287
0.654879
0.686821
0.697721
0.654742
0.509283
0.243824
0.23591
0.489899
0.627895
0.667927
0.65683
0.627296
0.606697
0.601678
0.613115
0.640097
0.669516
0.69535
0.71531
0.727995
0.732349
0.727779
0.714881
0.694704
0.668748
0.639337
0.612077
0.600056
0.604165
0.623702
0.652157
0.662714
0.622848
0.486021
0.234247
0.225441
0.463464
0.591651
0.628256
0.617508
0.594267
0.578555
0.577256
0.591388
0.618522
0.648318
0.674236
0.694255
0.707019
0.711415
0.706794
0.693812
0.67355
0.64747
0.617643
0.590218
0.575519
0.575933
0.590626
0.612751
0.623056
0.586718
0.459758
0.223934
0.214339
0.434484
0.551762
0.584457
0.576225
0.559068
0.547638
0.549911
0.56635
0.592717
0.622773
0.648662
0.668633
0.6814
0.685813
0.68117
0.668184
0.647957
0.621876
0.591751
0.565082
0.548122
0.544987
0.555462
0.571726
0.579331
0.546993
0.430977
0.21298
0.202696
0.403485
0.508919
0.537731
0.534728
0.521911
0.514361
0.519961
0.537945
0.563023
0.593175
0.618914
0.638721
0.651408
0.655809
0.651173
0.638271
0.618204
0.592251
0.561962
0.536622
0.518165
0.511742
0.518406
0.530486
0.533099
0.504367
0.400202
0.20148
0.190604
0.371014
0.463978
0.49306
0.492614
0.483126
0.479112
0.487588
0.506658
0.531223
0.55978
0.585247
0.604772
0.617289
0.621643
0.617048
0.604323
0.584543
0.558853
0.530093
0.505302
0.485824
0.47658
0.479777
0.488647
0.488843
0.459712
0.367984
0.189523
0.178147
0.337909
0.421815
0.449236
0.449871
0.443056
0.442245
0.452999
0.472703
0.496666
0.522735
0.547786
0.566916
0.579172
0.583444
0.578929
0.566477
0.547105
0.521831
0.49553
0.47135
0.451291
0.439866
0.439901
0.446198
0.445417
0.41817
0.335358
0.177197
0.165424
0.307532
0.381663
0.405819
0.406654
0.402031
0.40399
0.416387
0.436279
0.459455
0.483339
0.506465
0.525058
0.536968
0.541124
0.536732
0.524645
0.505829
0.482464
0.45836
0.434969
0.414762
0.401806
0.399128
0.403296
0.402391
0.378512
0.30535
0.164597
0.153014
0.278695
0.342662
0.362676
0.363172
0.360383
0.364513
0.377885
0.397514
0.419658
0.441741
0.462026
0.478878
0.490326
0.494328
0.490113
0.478513
0.461441
0.440937
0.418643
0.396287
0.376374
0.362534
0.357789
0.360139
0.359626
0.339934
0.276819
0.152326
0.141145
0.250727
0.304394
0.319862
0.319693
0.318362
0.323939
0.3376
0.356499
0.377324
0.397676
0.415828
0.430396
0.440162
0.443577
0.43997
0.430073
0.415322
0.396972
0.376421
0.35539
0.336231
0.322174
0.316088
0.317013
0.317183
0.302046
0.249116
0.140571
0.129498
0.223213
0.266676
0.277525
0.276516
0.276173
0.282418
0.295676
0.31336
0.332542
0.351047
0.367297
0.380137
0.388629
0.39161
0.38847
0.379877
0.366885
0.350461
0.331771
0.312393
0.294472
0.280872
0.274208
0.274209
0.275205
0.264678
0.221841
0.129022
0.117791
0.195866
0.22945
0.235846
0.233926
0.234034
0.240177
0.252374
0.268362
0.285547
0.301993
0.316305
0.327526
0.334896
0.337507
0.334778
0.32734
0.315999
0.301533
0.28492
0.267552
0.251348
0.23885
0.23236
0.231987
0.233878
0.227781
0.194715
0.117403
0.105742
0.16846
0.192728
0.195054
0.192201
0.192223
0.197579
0.208141
0.221997
0.236843
0.250981
0.263215
0.272768
0.279037
0.281284
0.27896
0.272659
0.263017
0.250651
0.236365
0.221353
0.207298
0.196463
0.190819
0.190603
0.193432
0.191371
0.167515
0.105436
0.0930008
0.140701
0.15649
0.155341
0.151548
0.151015
0.15504
0.163535
0.174927
0.187151
0.198759
0.208753
0.216545
0.221672
0.223535
0.221634
0.216507
0.208664
0.198556
0.186825
0.174452
0.162874
0.154121
0.149853
0.150255
0.154057
0.155432
0.139952
0.092775
0.0791554
0.112325
0.120859
0.117102
0.112458
0.11087
0.113161
0.119241
0.12795
0.137357
0.14637
0.153839
0.159769
0.163687
0.165134
0.163685
0.1598
0.154008
0.146295
0.137185
0.127652
0.118763
0.112481
0.109976
0.111456
0.116151
0.120135
0.111794
0.078997
0.0633606
0.0811928
0.0840121
0.0803361
0.0754765
0.0718795
0.0719772
0.0739937
0.0795258
0.0857096
0.0940067
0.0959818
0.0997191
0.102195
0.103126
0.102232
0.099842
0.0992241
0.0940686
0.0857199
0.0794417
0.0737109
0.0723688
0.0720473
0.0748496
0.0800723
0.0849601
0.0819306
0.0624061
0.0647324
0.0662226
0.0664573
0.0137985
0.0638801
0.0661676
0.0658032
0.012717
0.0131827
0.013753
0.0131567
0.0665517
0.0703029
0.0723207
0.0730422
0.0722211
0.0693765
0.013558
0.012926
0.013753
0.0131689
0.0124692
0.0141858
0.0620492
0.0660736
0.0689956
0.0608856
0.0613015
0.013507
0.00316903
0.00463961
0.00610971
0.00644731
0.00630837
0.00603813
0.00573864
0.00546128
0.00523613
0.00507814
0.00497904
0.00493093
0.0049198
0.00491082
0.0049143
0.00493862
0.00496328
0.00499274
0.00504591
0.00515151
0.00531326
0.00553476
0.00580277
0.00608936
0.00635113
0.00648224
0.00611532
0.00464149
0.00318536
0.00113764
0.00409495
0.00579377
0.00614118
0.00594189
0.00562756
0.00533066
0.00508891
0.0049087
0.00478783
0.00470848
0.00466398
0.00464488
0.00462747
0.00462508
0.00464673
0.00467429
0.00470804
0.00475874
0.0048462
0.00497287
0.00515067
0.0053863
0.00567172
0.00597786
0.00616602
0.00579014
0.00407843
0.00115007
0.00120359
0.0049705
0.00646967
0.0068983
0.00683891
0.00661034
0.00637192
0.00617387
0.00602616
0.00593098
0.00586446
0.00582613
0.00580791
0.00578781
0.00578457
0.00580872
0.00583638
0.00586772
0.0059144
0.00599239
0.0060976
0.00623985
0.0064324
0.00665767
0.00687729
0.00692123
0.00646252
0.0049392
0.00123738
0.00113656
0.00606844
0.00720729
0.00775346
0.00787333
0.00777974
0.00763322
0.00749251
0.00738383
0.00731971
0.00727211
0.00725062
0.00723858
0.00722293
0.00722489
0.00725948
0.00727968
0.00729226
0.0073267
0.00738953
0.00746974
0.00756534
0.00770363
0.0078271
0.00791118
0.00777587
0.00719972
0.00606662
0.00538315
0.00112888
0.00699837
0.00800841
0.00868911
0.00897722
0.00901609
0.00894936
0.00884841
0.00875937
0.00870942
0.00867453
0.00867847
0.00866021
0.0086473
0.00866058
0.00873692
0.00874734
0.00872079
0.00874389
0.0087968
0.00886682
0.00893531
0.00906008
0.00905531
0.00900686
0.00871174
0.00800154
0.00698896
0.00528106
0.00123267
0.00780054
0.00887847
0.00972221
0.0101658
0.0103393
0.0103182
0.0102432
0.0101552
0.0100937
0.0100653
0.0101189
0.010061
0.0100376
0.0100687
0.0102705
0.0102703
0.0101647
0.0101782
0.010221
0.0102802
0.010361
0.0105923
0.0103512
0.0101767
0.00974613
0.00887356
0.0077731
0.00120271
0.00528688
0.00890054
0.00985599
0.0109243
0.0115128
0.0118618
0.0118258
0.0117902
0.0117023
0.0115877
0.0115622
0.0117097
0.0115507
0.01148
0.0115329
0.0120427
0.0120363
0.0118138
0.0118216
0.0118311
0.0118089
0.0119689
0.0126531
0.0117976
0.0114943
0.0109509
0.00985185
0.00875996
0.0011234
0.00594667
0.00987108
0.0109549
0.0123859
0.0131137
0.0137497
0.0135739
0.0136592
0.0135928
0.0133972
0.013371
0.0135862
0.0133322
0.0130957
0.0131576
0.0142532
0.014269
0.014065
0.0140679
0.0139981
0.0135738
0.0139313
0.016079
0.0135017
0.0130556
0.0124175
0.0109586
0.00982867
0.00587572
0.00773285
0.0108786
0.0122209
0.0142196
0.0150744
0.0162048
0.0155244
0.016015
0.0159758
0.0158624
0.0158125
0.0148975
0.0157289
0.0149673
0.0149885
0.0160546
0.0161709
0.0176555
0.0176269
0.0174766
0.0155148
0.016305
0.0179701
0.0155456
0.0149896
0.0142608
0.0122294
0.0108477
0.00769484
0.0095604
0.0119418
0.0137213
0.0165445
0.0173812
0.0187076
0.0178627
0.0181927
0.0181002
0.0194972
0.0194785
0.0169788
0.0193423
0.0169638
0.0169378
0.0179807
0.0183141
0.0193277
0.0191668
0.0191014
0.0177738
0.0184792
0.0200159
0.017957
0.0174391
0.0166045
0.013735
0.0119133
0.00954859
0.0114215
0.0131125
0.0155663
0.0188872
0.0203019
0.0220449
0.0209521
0.0208152
0.0206318
0.0216369
0.0215514
0.0193418
0.0213825
0.0192659
0.0192568
0.0203706
0.021468
0.0205362
0.0201045
0.0201932
0.0207893
0.0211041
0.0223423
0.0210459
0.0204312
0.0189603
0.0155849
0.0130793
0.0114294
0.0133483
0.0144761
0.0179356
0.0218795
0.0235768
0.0243625
0.0244831
0.0243625
0.0241538
0.0239589
0.0237824
0.0224367
0.0235854
0.0223634
0.0223842
0.0237378
0.023754
0.0238936
0.0227695
0.0229704
0.0244154
0.0246617
0.0247974
0.0245423
0.023735
0.0219632
0.0179574
0.0144226
0.013368
0.0153728
0.0161352
0.0209659
0.0239095
0.0257603
0.0266467
0.0268968
0.0268231
0.0266266
0.0263799
0.0261923
0.026027
0.026014
0.025967
0.0259953
0.026098
0.0261409
0.0262756
0.0263902
0.0266281
0.0269362
0.0271453
0.0271995
0.0268939
0.0259351
0.0240054
0.0209879
0.0160151
0.015394
0.0175239
0.0182459
0.022779
0.0258563
0.0279115
0.0289409
0.0292688
0.0292241
0.0290292
0.0288052
0.0286247
0.0285049
0.0284545
0.0284582
0.0284925
0.0285317
0.0285913
0.0287075
0.028882
0.0291142
0.029369
0.0295741
0.0295977
0.0292126
0.0281052
0.0259646
0.0227977
0.0179378
0.0175354
0.0198303
0.0211152
0.0245604
0.0278372
0.0301073
0.0312855
0.0316915
0.0316725
0.0314757
0.0312461
0.0310592
0.0309373
0.0308886
0.0309002
0.0309416
0.0309812
0.0310424
0.0311581
0.0313396
0.0315798
0.0318452
0.0320532
0.0320493
0.0315838
0.0303216
0.0279591
0.0245793
0.0203469
0.0198202
0.0223194
0.0228994
0.0263479
0.0298712
0.0323608
0.0336942
0.034182
0.03419
0.0339907
0.0337489
0.0335494
0.033423
0.0333773
0.0333973
0.0334466
0.0334877
0.0335482
0.0336653
0.0338552
0.0341101
0.0343909
0.0346027
0.0345704
0.0340202
0.0325972
0.0300087
0.026394
0.0228417
0.0222892
0.0250145
0.024662
0.0281971
0.0319675