/*--------------------------------*- C++ -*----------------------------------*\
| =========                 |                                                 |
| \\      /  F ield         | OpenFOAM: The Open Source CFD Toolbox           |
|  \\    /   O peration     | Version:  5.x                                   |
|   \\  /    A nd           | Web:      www.OpenFOAM.org                      |
|    \\/     M anipulation  |                                                 |
\*---------------------------------------------------------------------------*/
/*   Windows 32 and 64 bit porting by blueCAPE: http://www.bluecape.com.pt   *\
|  Based on Windows porting (2.0.x v4) by Symscape: http://www.symscape.com   |
\*---------------------------------------------------------------------------*/
FoamFile
{
    version     2.0;
    format      ascii;
    class       volScalarField;
    location    "4.05";
    object      epsilon;
}
// * * * * * * * * * * * * * * * * * * * * * * * * * * * * * * * * * * * * * //

dimensions      [0 2 -3 0 0 0 0];

internalField   nonuniform List<scalar> 
400055
(
0.00855995
0.00892872
0.00906513
0.00901349
0.00887739
0.0086055
0.00828333
0.00789344
0.00746554
0.00704398
0.00668495
0.00645125
0.0063895
0.00647771
0.00654764
0.00645197
0.00640672
0.00650856
0.00676529
0.00713579
0.00756144
0.00798638
0.00836708
0.00866568
0.00893851
0.00911022
0.00912061
0.00893798
0.00862114
0.00590579
0.00624279
0.0274231
0.0273049
0.026907
0.00614216
0.00609573
0.00590837
0.00566206
0.00542198
0.00523982
0.00515454
0.00517689
0.00527164
0.00533565
0.00525302
0.00518235
0.00518024
0.0052789
0.00546643
0.00570599
0.00595099
0.00615814
0.0266474
0.0267235
0.02763
0.0274709
0.00615155
0.0059438
0.00601632
0.027209
0.0291479
0.0292648
0.0283616
0.0266376
0.00615254
0.00615539
0.00601827
0.00585179
0.00574015
0.00571852
0.00578206
0.00585781
0.0059725
0.00585236
0.00579227
0.00573934
0.00577068
0.00588407
0.00604581
0.00619396
0.0266353
0.027086
0.028583
0.0296265
0.0293874
0.0271362
0.00605585
0.00607089
0.0276891
0.0299506
0.0301701
0.0291294
0.0272135
0.0266938
0.00607915
0.00615301
0.00609051
0.00605579
0.00606627
0.00613962
0.00581428
0.0266068
0.00610912
0.00615847
0.00608551
0.00607942
0.00611683
0.00617346
0.00609482
0.00625832
0.0275334
0.029427
0.0305301
0.0302619
0.0278548
0.00611495
0.00609625
0.0279464
0.0303174
0.0305591
0.0294362
0.0274105
0.0268049
0.00608827
0.0062094
0.00619899
0.00621831
0.00616316
0.0267173
0.00615549
0.00613298
0.0268857
0.00624165
0.00617924
0.00624681
0.00623916
0.0062436
0.00611093
0.00626852
0.0277113
0.0297519
0.0308985
0.0306404
0.0282113
0.00614275
0.00610815
0.0281087
0.0304831
0.0307018
0.029524
0.0274283
0.027105
0.00624504
0.00624427
0.00604539
0.00604825
0.00626321
0.00614048
0.00608543
0.00617182
0.00618309
0.027076
0.0265755
0.00623459
0.0265708
0.0265199
0.00625415
0.0267443
0.0277435
0.0298413
0.0310287
0.0308056
0.0284135
0.00615639
0.00611728
0.0282499
0.0305826
0.0307556
0.0295329
0.0273996
0.0271023
0.0265274
0.00625883
0.00603534
0.00603214
0.00613024
0.00614006
0.0265637
0.00625423
0.00620516
0.0062121
0.00614552
0.00620653
0.026667
0.0264799
0.0264978
0.0264826
0.027685
0.0298509
0.0310805
0.0309071
0.0285726
0.00616671
0.00613071
0.0284244
0.0307039
0.030821
0.0295541
0.0273937
0.0270129
0.0265704
0.0264524
0.00606299
0.00614215
0.00614092
0.00606938
0.00612164
0.027571
0.0265474
0.00623408
0.00625051
0.00620891
0.0267403
0.00626855
0.0265398
0.0265903
0.0276915
0.0298753
0.0311508
0.0310343
0.0287573
0.00618046
0.00615304
0.0286729
0.0309065
0.0309647
0.0296498
0.0274758
0.0266321
0.0265153
0.0265244
0.00610608
0.0061902
0.00626261
0.00607666
0.00612546
0.0280297
0.0271511
0.0270818
0.026613
0.00622469
0.00626333
0.0264861
0.0264743
0.00622075
0.0277794
0.029982
0.0313031
0.031246
0.0290182
0.00620156
0.00618695
0.0290281
0.0312311
0.0312317
0.0298681
0.02768
0.00622701
0.00620928
0.0266031
0.00617411
0.0267705
0.00619949
0.00615654
0.00621153
0.0272455
0.0270661
0.0275268
0.0268848
0.00625898
0.00625162
0.0266703
0.0265756
0.00622581
0.0279944
0.0302129
0.0315791
0.0315743
0.0293647
0.00622691
0.00623001
0.029509
0.0317026
0.0316517
0.0302391
0.02804
0.00624205
0.0062229
0.00626329
0.006259
0.0268708
0.00624282
0.0265084
0.0268342
0.0274439
0.0272859
0.0271627
0.0273204
0.0266813
0.00618503
0.0265014
0.0264827
0.0264805
0.0283582
0.0305956
0.0320057
0.0320379
0.0297887
0.00625458
0.00624302
0.0301035
0.0323288
0.0322422
0.0307815
0.028569
0.0266524
0.0265384
0.0267607
0.0270074
0.0269053
0.0268326
0.0274234
0.0278425
0.0282779
0.0280325
0.027628
0.0272884
0.0266538
0.00623156
0.0268695
0.0268096
0.0269601
0.0289031
0.031151
0.0326032
0.0326564
0.0303255
0.0265862
0.00626489
0.0307874
0.0331161
0.0330146
0.0315085
0.0292761
0.0272594
0.0267103
0.0272375
0.0272036
0.0273093
0.0277247
0.0286152
0.0292036
0.0296267
0.0293008
0.0287199
0.0280393
0.0272233
0.0266877
0.0269491
0.0269597
0.0276028
0.0296359
0.0318939
0.0333863
0.0334482
0.0310148
0.0269069
0.0266997
0.031604
0.0340742
0.0339767
0.0324296
0.0301711
0.0280724
0.0271689
0.0274196
0.0276447
0.0281543
0.0290225
0.0302017
0.0309981
0.0314734
0.0310883
0.030339
0.0293476
0.0282401
0.0274255
0.0273273
0.0274512
0.0284487
0.0305622
0.0328343
0.0343628
0.0344186
0.0318699
0.0270734
0.0265023
0.0325351
0.0352075
0.0351343
0.0335523
0.0312645
0.0291032
0.027963
0.0280051
0.0284973
0.0294572
0.030775
0.0322618
0.0332889
0.0338422
0.0334118
0.0324765
0.0311641
0.0297043
0.0285432
0.0281271
0.0283115
0.0295222
0.0316914
0.0339795
0.0355374
0.0355652
0.0328367
0.0273486
0.0268084
0.0336298
0.0365234
0.0364925
0.0348835
0.0325678
0.0303652
0.0290921
0.0290418
0.029807
0.0312326
0.0330196
0.034849
0.0361269
0.036771
0.0362988
0.0351546
0.0334949
0.0316356
0.0300876
0.0293609
0.029528
0.0308381
0.0330345
0.0353367
0.0369154
0.0368941
0.0339126
0.0272034
0.027381
0.0348807
0.0380264
0.0380571
0.0364313
0.0340933
0.0318733
0.0305531
0.0305211
0.0315873
0.0334989
0.0357885
0.0380036
0.0395541
0.0402992
0.0397807
0.038403
0.0363622
0.0340559
0.0320783
0.0310192
0.0310895
0.0324097
0.0346044
0.0369143
0.0385024
0.0384142
0.0351686
0.0275831
0.0281477
0.0362935
0.0397245
0.0398365
0.0382061
0.0358558
0.0336449
0.0323505
0.0324343
0.0338481
0.0362781
0.0391114
0.041758
0.0436058
0.0444623
0.0438875
0.0422511
0.0397918
0.0369888
0.0345324
0.0331001
0.0329965
0.0342537
0.0364168
0.0387232
0.0403069
0.0401315
0.0365989
0.0282901
0.0290851
0.0378816
0.0416292
0.0418425
0.0402218
0.0378734
0.0357013
0.0344982
0.0347852
0.0366041
0.0395944
0.043016
0.0461398
0.0483111
0.0492903
0.0486465
0.0467254
0.0438097
0.04046
0.0374719
0.0356141
0.0352623
0.0363915
0.0384909
0.0407782
0.0423418
0.0420584
0.0382088
0.0292274
0.030183
0.0396592
0.043756
0.0440919
0.0424972
0.0401685
0.0380683
0.0370189
0.0375898
0.0398761
0.0434736
0.0475273
0.0511712
0.0536928
0.0548063
0.0540794
0.0518479
0.0484397
0.044497
0.0409241
0.0385833
0.0379106
0.03885
0.0408506
0.0430991
0.0446247
0.0442113
0.0400089
0.0303461
0.031434
0.0416401
0.0461243
0.0466065
0.0450563
0.0427691
0.0407776
0.0399437
0.0408746
0.0436909
0.0479426
0.0526701
0.0568723
0.0597688
0.0610279
0.060204
0.0576386
0.0537055
0.0491278
0.0449207
0.0420385
0.0409742
0.0416626
0.0435254
0.0457111
0.0471783
0.0466102
0.0420126
0.031622
0.032834
0.0438396
0.0487576
0.0494137
0.0479299
0.0457098
0.0438678
0.0433112
0.0446743
0.0480802
0.0530296
0.0584699
0.063265
0.0665592
0.0679739
0.0670404
0.0641195
0.0596323
0.0543817
0.0494973
0.0460181
0.0444935
0.0448692
0.0465515
0.0486464
0.0500312
0.049279
0.0442361
0.0330441
0.0343815
0.0462755
0.0516843
0.0525478
0.0511562
0.0490331
0.0473847
0.0471677
0.0490317
0.0530814
0.0587667
0.0649499
0.0703657
0.0740787
0.0756588
0.074604
0.0713073
0.0662429
0.0602911
0.0546939
0.0505674
0.0485169
0.0485178
0.0499733
0.0519449
0.0532186
0.0522466
0.0466984
0.0346092
0.0360779
0.0489684
0.0549386
0.0560507
0.0547824
0.0527904
0.0513834
0.0515683
0.0539971
0.058738
0.0651895
0.0721351
0.0781913
0.0823398
0.0840941
0.0829083
0.0792199
0.0735624
0.0668924
0.0605562
0.055739
0.0531014
0.0526654
0.0538443
0.0556553
0.0567835
0.0555476
0.0494215
0.0363193
0.0379271
0.0519428
0.0585605
0.0599722
0.0588649
0.0570435
0.0559288
0.0565772
0.0596294
0.0651004
0.0723376
0.0800588
0.0867657
0.0913581
0.0932931
0.0919697
0.0878803
0.0816218
0.0742266
0.0671361
0.0615935
0.0583132
0.0573793
0.0582284
0.0598361
0.0607773
0.0592227
0.0524307
0.0381798
0.0399349
0.0552269
0.0625971
0.0643719
0.0634715
0.0618658
0.0610974
0.0622692
0.065997
0.0722278
0.0802585
0.0887877
0.0961635
0.101192
0.103304
0.101845
0.0973671
0.0904845
0.082342
0.0744939
0.068201
0.0642292
0.0627382
0.0632015
0.064557
0.065261
0.0633199
0.0557546
0.0401982
0.0421091
0.0588533
0.067103
0.0693194
0.0686821
0.0673437
0.0669782
0.0687309
0.0731789
0.0801884
0.089008
0.0983525
0.106401
0.111882
0.114179
0.112578
0.107698
0.100193
0.0912957
0.082699
0.0756416
0.0709379
0.0688337
0.0688524
0.0699001
0.070306
0.0678946
0.0594256
0.0423837
0.0444587
0.0628592
0.072141
0.074896
0.0745904
0.0735781
0.0736743
0.0760616
0.0812654
0.0890612
0.0986516
0.108798
0.117509
0.123446
0.125934
0.12419
0.118905
0.110793
0.101154
0.0918315
0.0840074
0.0785408
0.0757713
0.0752849
0.0759617
0.0759956
0.0730107
0.0634806
0.0447468
0.0469941
0.0672863
0.0777834
0.0811958
0.081305
0.0806858
0.081304
0.0843742
0.090359
0.0989364
0.109266
0.120182
0.129535
0.13592
0.138601
0.136715
0.131036
0.122342
0.111996
0.101983
0.0934028
0.0871529
0.083672
0.0826186
0.0828531
0.0824257
0.0787414
0.0679612
0.0472985
0.0497267
0.0721819
0.0841123
0.0883267
0.0889508
0.0888003
0.0900014
0.0937958
0.100575
0.109916
0.120938
0.132578
0.142537
0.149356
0.15223
0.150209
0.144154
0.134914
0.123911
0.113258
0.103945
0.0969035
0.0926725
0.0909904
0.0907021
0.0897064
0.0851704
0.0729146
0.0500507
0.052669
0.0775988
0.0912207
0.0964118
0.0976703
0.0980731
0.0999173
0.104469
0.112042
0.122115
0.133769
0.146071
0.156594
0.163823
0.166884
0.164738
0.158334
0.148596
0.136999
0.125773
0.115764
0.107936
0.102926
0.100554
0.0996537
0.0979626
0.0923923
0.078394
0.0530162
0.0558344
0.0835954
0.0992128
0.10559
0.107623
0.108674
0.111219
0.116549
0.124901
0.135659
0.147871
0.160761
0.171793
0.179403
0.182644
0.180386
0.173666
0.163487
0.151377
0.139655
0.129002
0.120409
0.114602
0.111482
0.109871
0.107336
0.100513
0.084459
0.056208
0.0592375
0.0902365
0.108205
0.116015
0.118989
0.120789
0.124089
0.130206
0.139307
0.150688
0.163371
0.17676
0.188242
0.196196
0.199605
0.19725
0.190255
0.179701
0.167168
0.155044
0.143814
0.134493
0.127884
0.123963
0.121534
0.117982
0.109652
0.0911752
0.05964
0.0628936
0.0975933
0.118326
0.127858
0.131962
0.134622
0.138726
0.145624
0.155425
0.167353
0.180405
0.194196
0.206059
0.214315
0.217877
0.215443
0.208219
0.197361
0.184513
0.172089
0.160365
0.15037
0.14297
0.1382
0.13484
0.130076
0.119939
0.0986152
0.0633266
0.0668192
0.105744
0.129717
0.141306
0.146754
0.150392
0.155339
0.162996
0.17343
0.185814
0.199128
0.213207
0.225376
0.233888
0.237587
0.235091
0.227689
0.216608
0.203565
0.19095
0.178828
0.16823
0.160067
0.154413
0.150003
0.143804
0.131516
0.106858
0.0672834
0.0710318
0.114771
0.142528
0.156558
0.163591
0.168328
0.174146
0.182522
0.193506
0.206242
0.21971
0.233946
0.24634
0.255057
0.258875
0.256338
0.24881
0.237589
0.224489
0.211793
0.199382
0.188271
0.179392
0.172829
0.167248
0.159367
0.144535
0.115989
0.0715268
0.0755496
0.124766
0.156922
0.173825
0.182708
0.188667
0.195374
0.204409
0.215843
0.228816
0.242327
0.256574
0.269109
0.277979
0.281895
0.279338
0.271738
0.260465
0.247456
0.234791
0.22221
0.210694
0.201167
0.193684
0.186809
0.176978
0.15916
0.126099
0.0760742
0.080392
0.135824
0.173069
0.193326
0.204345
0.211651
0.219248
0.228865
0.24063
0.253716
0.26716
0.281262
0.29385
0.30282
0.306816
0.30426
0.296642
0.285406
0.272642
0.26012
0.247497
0.235703
0.225614
0.217216
0.208926
0.196852
0.175558
0.137283
0.0809438
0.0855784
0.148044
0.191142
0.215282
0.228745
0.237517
0.245993
0.256097
0.268061
0.281125
0.294391
0.308189
0.320742
0.329762
0.333818
0.331285
0.323701
0.312588
0.300224
0.287956
0.27543
0.263499
0.252954
0.243661
0.233837
0.219211
0.193902
0.14964
0.0861545
0.0911289
0.161526
0.211318
0.239915
0.256143
0.2665
0.275827
0.286303
0.29832
0.311225
0.324203
0.337541
0.349974
0.358996
0.363095
0.360606
0.353106
0.342199
0.330383
0.318477
0.30619
0.294275
0.283398
0.273247
0.261774
0.244269
0.214365
0.163271
0.0917263
0.0970633
0.176374
0.233768
0.267436
0.286764
0.298816
0.308952
0.319673
0.331588
0.344189
0.356776
0.369517
0.381743
0.390723
0.394851
0.392425
0.385055
0.374442
0.3633
0.351858
0.339955
0.32822
0.317147
0.306185
0.292955
0.272236
0.237117
0.178276
0.0976798
0.103401
0.192686
0.258655
0.29804
0.320814
0.334665
0.345556
0.356382
0.368031
0.380188
0.392289
0.404384
0.416263
0.425158
0.429303
0.426957
0.419762
0.409628
0.399153
0.388267
0.376891
0.365505
0.354382
0.342669
0.327579
0.3033
0.262319
0.194754
0.104036
0.11016
0.210555
0.286128
0.331901
0.358471
0.374221
0.385802
0.396586
0.407804
0.419378
0.430911
0.442393
0.453762
0.462528
0.466679
0.464428
0.457457
0.447938
0.43811
0.427862
0.417152
0.406282
0.395261
0.382863
0.365817
0.337632
0.290117
0.2128
0.110813
0.117359
0.230067
0.316313
0.369164
0.39988
0.417623
0.429824
0.440417
0.451041
0.461907
0.472803
0.483708
0.494482
0.503086
0.507233
0.50509
0.498405
0.489538
0.48033
0.470788
0.460872
0.45068
0.439909
0.426898
0.407806
0.375369
0.320638
0.232499
0.11803
0.125013
0.251295
0.349311
0.409934
0.445147
0.464972
0.477723
0.487977
0.497857
0.507902
0.518113
0.528485
0.538806
0.547115
0.551197
0.549241
0.542935
0.534582
0.525956
0.517171
0.508161
0.498797
0.488419
0.474864
0.453641
0.416614
0.353981
0.253922
0.125703
0.133135
0.274295
0.385187
0.454274
0.494327
0.516322
0.529555
0.539336
0.548338
0.557472
0.566971
0.576866
0.586857
0.594985
0.599029
0.597219
0.591175
0.583208
0.575116
0.567118
0.559104
0.550696
0.54084
0.526807
0.503374
0.461427
0.390211
0.277125
0.133847
0.141738
0.299105
0.423968
0.502193
0.547422
0.571678
0.585335
0.594526
0.602538
0.6107
0.619487
0.628973
0.638754
0.64681
0.650852
0.649139
0.643241
0.635537
0.627915
0.620707
0.613748
0.6064
0.597175
0.582723
0.557002
0.509815
0.429352
0.302147
0.142472
0.150828
0.32574
0.465639
0.553647
0.604375
0.630983
0.645025
0.653532
0.660477
0.667637
0.675742
0.684903
0.694599
0.702686
0.706764
0.705099
0.699236
0.691668
0.684431
0.677983
0.672105
0.665888
0.657381
0.642552
0.614463
0.561728
0.471387
0.329
0.151586
0.160411
0.354188
0.510132
0.608529
0.665064
0.694123
0.708529
0.716295
0.72213
0.728295
0.73578
0.744723
0.754461
0.762685
0.766839
0.765173
0.759233
0.751667
0.744706
0.738954
0.734145
0.729092
0.721357
0.706177
0.675633
0.617056
0.516243
0.357669
0.161195
0.170487
0.384408
0.557329
0.666667
0.729299
0.760916
0.775696
0.782699
0.787425
0.792644
0.799603
0.808456
0.818375
0.826844
0.831116
0.829401
0.823271
0.815562
0.808743
0.803584
0.799788
0.79589
0.788945
0.773411
0.740317
0.675623
0.563796
0.38811
0.171298
0.181051
0.416325
0.607053
0.727821
0.796815
0.831109
0.846305
0.852569
0.856232
0.860594
0.867158
0.876075
0.886327
0.895155
0.899589
0.897778
0.89134
0.883332
0.876493
0.871787
0.8689
0.866101
0.859923
0.843999
0.808245
0.737179
0.613861
0.420243
0.181891
0.192091
0.449826
0.659068
0.791677
0.867273
0.904377
0.920065
0.92566
0.928357
0.931998
0.938334
0.947495
0.958245
0.967549
0.972193
0.970238
0.963371
0.954895
0.947848
0.943413
0.941284
0.939478
0.933994
0.917608
0.879074
0.8014
0.666191
0.453953
0.192963
0.203592
0.484762
0.713073
0.857844
0.940253
0.980309
0.996607
1.00165
1.00353
1.00663
1.01295
1.02256
1.03399
1.04389
1.04879
1.04664
1.03922
1.03009
1.02262
1.01824
1.01667
1.0157
1.01079
0.993825
0.952371
0.867886
0.720478
0.489084
0.204496
0.215526
0.520943
0.768704
0.925856
1.01525
1.05841
1.07547
1.08014
1.0814
1.0842
1.09073
1.10103
1.11332
1.12395
1.12914
1.12674
1.11864
1.10868
1.10055
1.09596
1.0947
1.09435
1.08984
1.07215
1.02762
0.936158
0.776349
0.525439
0.216464
0.227862
0.558136
0.825532
0.995163
1.09167
1.13809
1.15611
1.16063
1.16153
1.1643
1.17133
1.18256
1.19592
1.2074
1.21292
1.21022
1.20131
1.19032
1.18127
1.17617
1.17493
1.17494
1.1706
1.15199
1.10423
1.00566
0.833364
0.562782
0.228832
0.240556
0.596065
0.883059
1.06514
1.16882
1.21867
1.23788
1.24253
1.24338
1.24643
1.25428
1.26673
1.28136
1.29379
1.29967
1.29662
1.28678
1.27454
1.26429
1.25836
1.25681
1.25687
1.25242
1.23267
1.1815
1.07576
0.891024
0.600833
0.241558
0.253556
0.634411
0.940727
1.13507
1.24594
1.29938
1.32003
1.32513
1.32628
1.32999
1.339
1.35294
1.36904
1.38255
1.38881
1.38536
1.37446
1.36077
1.34903
1.34191
1.33968
1.33943
1.33457
1.3134
1.25867
1.14576
0.948771
0.639272
0.254588
0.266801
0.67282
0.997921
1.2042
1.32218
1.37934
1.40172
1.40763
1.40948
1.41424
1.42477
1.4405
1.45828
1.47296
1.47963
1.47573
1.46364
1.44829
1.43475
1.42609
1.42278
1.42183
1.41619
1.39332
1.33488
1.21487
1.00599
0.677743
0.267861
0.280221
0.7109
1.05398
1.27168
1.39661
1.45761
1.48202
1.48911
1.4921
1.49833
1.51075
1.52857
1.5482
1.56415
1.57123
1.56684
1.55346
1.53625
1.52062
1.51003
1.50522
1.50315
1.49634
1.47149
1.40923
1.28228
1.06203
0.715858
0.281304
0.293734
0.748228
1.10819
1.33662
1.46825
1.53316
1.55988
1.56858
1.57313
1.58126
1.59595
1.61613
1.63779
1.65508
1.6626
1.65768
1.64291
1.62365
1.60563
1.59274
1.58601
1.58238
1.57401
1.54688
1.48072
1.34711
1.11618
0.753198
0.294836
0.307252
0.78436
1.15982
1.39811
1.53606
1.60492
1.63422
1.64491
1.65147
1.66193
1.67925
1.70205
1.72589
1.74459
1.75255
1.74707
1.73083
1.70935
1.68868
1.67313
1.66405
1.65841
1.64808
1.61841
1.54834
1.40845
1.16773
0.789322
0.308368
0.320675
0.818834
1.20814
1.45522
1.599
1.67176
1.70387
1.71694
1.72593
1.73912
1.7594
1.78505
1.81119
1.83133
1.83973
1.83368
1.8159
1.79207
1.76852
1.74998
1.73814
1.73007
1.71739
1.68493
1.61102
1.46535
1.21593
0.823771
0.321797
0.333897
0.85118
1.25239
1.50701
1.65601
1.73253
1.76763
1.7834
1.79522
1.8115
1.83503
1.86371
1.89224
1.91383
1.92267
1.91604
1.8967
1.87043
1.8438
1.82198
1.80702
1.79611
1.78072
1.74531
1.66769
1.5169
1.26004
0.856072
0.335017
0.346802
0.880931
1.29185
1.55258
1.70604
1.78609
1.82427
1.84301
1.85796
1.87764
1.90467
1.93654
1.96748
1.99052
1.99978
1.99257
1.97167
1.94291
1.91307
1.88771
1.8693
1.85521
1.83684
1.79837
1.7173
1.56218
1.29933
0.885759
0.347909
0.359269
0.907634
1.32584
1.59107
1.7481
1.83132
1.87257
1.89443
1.9127
1.93601
1.96673
2.00189
2.03528
2.05972
2.06939
2.06162
2.03918
2.00791
1.97473
1.94564
1.92354
1.90605
1.88452
1.84301
1.75886
1.60034
1.33312
0.912375
0.360353
0.37117
0.930861
1.35373
1.6217
1.78126
1.86718
1.91133
1.93631
1.95943
1.98724
2.02093
2.0581
2.0939
2.11971
2.12975
2.12145
2.09753
2.06374
2.02832
1.9962
1.96954
1.94728
1.92256
1.87816
1.79145
1.63058
1.36077
0.93549
0.372222
0.382374
0.950224
1.37498
1.6438
1.80471
1.89267
1.93943
1.96988
1.99853
2.03042
2.06695
2.10567
2.14163
2.16872
2.17912
2.17031
2.14497
2.11079
2.07376
2.03872
2.0079
1.97997
1.94987
1.90289
1.81425
1.65221
1.38173
0.954713
0.383385
0.392746
0.965381
1.38913
1.6568
1.81776
1.90702
1.95838
1.99538
2.0288
2.06436
2.10354
2.14374
2.17993
2.20632
2.21637
2.20775
2.18291
2.14837
2.10977
2.07199
2.03742
2.00462
1.96788
1.9164
1.8266
1.6647
1.39554
0.969704
0.393711
0.402152
0.976043
1.39584
1.66031
1.81994
1.91103
1.96945
2.0117
2.04918
2.088
2.12957
2.1711
2.20756
2.23348
2.24326
2.23477
2.21023
2.17526
2.1352
2.09493
2.05703
2.02009
1.97804
1.91951
1.82804
1.66764
1.40187
0.980178
0.40307
0.410454
0.981986
1.39489
1.65408
1.81117
1.90808
1.97158
2.01792
2.05879
2.10043
2.14405
2.1867
2.22337
2.24891
2.25847
2.25007
2.22575
2.1904
2.14907
2.10663
2.06586
2.02547
1.97929
1.91572
1.81851
1.66082
1.40051
0.985917
0.411328
0.417515
0.983046
1.38618
1.63822
1.79625
1.89708
1.96393
2.01332
2.05695
2.10092
2.14619
2.18966
2.2264
2.25157
2.26091
2.25262
2.22851
2.19291
2.15058
2.10638
2.06322
2.02006
1.97082
1.90393
1.8029
1.64436
1.39138
0.986765
0.41835
0.423197
0.979129
1.36982
1.61565
1.77477
1.87723
1.94593
1.99741
2.04314
2.08892
2.1354
2.17933
2.21591
2.24065
2.24976
2.24159
2.21776
2.18212
2.13916
2.09364
2.04862
2.00335
1.95204
1.88334
1.78077
1.62125
1.37459
0.982632
0.423998
0.427361
0.970224
1.34637
1.58841
1.74593
1.84799
1.9172
1.96987
2.01705
2.06409
2.11126
2.15524
2.1914
2.2156
2.22445
2.21642
2.19299
2.15759
2.1144
2.06806
2.02175
1.97504
1.92256
1.85341
1.75131
1.5935
1.35076
0.973511
0.428134
0.429925
0.956508
1.31996
1.55563
1.70916
1.80905
1.87755
1.93056
1.97852
2.02621
2.07356
2.11716
2.15259
2.17609
2.18462
2.17679
2.15391
2.11906
2.0761
2.02947
1.98246
1.93498
1.88221
1.81382
1.71396
1.56024
1.32399
0.959583
0.430684
0.431585
0.940314
1.28976
1.51669
1.66411
1.76026
1.82694
1.87948
1.92753
1.97527
2.02224
2.06499
2.09939
2.12201
2.13017
2.12259
2.10043
2.06647
2.02423
1.97787
1.93075
1.88317
1.83092
1.76442
1.66836
1.52083
1.29345
0.943192
0.432331
0.432182
0.921397
1.25514
1.47114
1.61061
1.70162
1.76547
1.81674
1.86421
1.91138
1.95742
1.99885
2.03188
2.05344
2.06115
2.05387
2.03265
1.99992
1.95889
1.91336
1.86675
1.81975
1.7688
1.70519
1.61434
1.47484
1.25851
0.924082
0.432916
0.431532
0.899369
1.21562
1.41871
1.54859
1.63322
1.69331
1.74256
1.78878
1.83475
1.8793
1.91896
1.9503
1.97059
1.97779
1.97088
1.95079
1.91966
1.8803
1.83619
1.7907
1.74491
1.69601
1.63622
1.55181
1.42199
1.21868
0.901861
0.432254
0.429426
0.873868
1.17083
1.3592
1.47806
1.55524
1.61072
1.65723
1.70155
1.74572
1.78822
1.82567
1.85498
1.87381
1.88044
1.87396
1.85521
1.82602
1.78882
1.74667
1.70289
1.65896
1.61282
1.55768
1.4808
1.36207
1.17359
0.87617
0.430135
0.42563
0.844554
1.12044
1.2925
1.39911
1.46787
1.51798
1.56109
1.6029
1.64469
1.68462
1.71941
1.74638
1.76356
1.76954
1.76356
1.74637
1.71946
1.68485
1.6452
1.60373
1.56226
1.51951
1.46979
1.40138
1.29499
1.12291
0.846671
0.426325
0.419876
0.81109
1.06419
1.21853
1.31183
1.37135
1.41543
1.45453
1.49326
1.53212
1.56897
1.60071
1.62501
1.64036
1.64563
1.64024
1.62479
1.60048
1.56889
1.53226
1.49364
1.45519
1.41644
1.37278
1.31365
1.22065
1.06639
0.813028
0.420556
0.411855
0.773121
1.00182
1.13721
1.21632
1.26594
1.3034
1.33797
1.37312
1.40856
1.44186
1.47013
1.49148
1.50481
1.50932
1.50459
1.49108
1.46968
1.4415
1.40836
1.37311
1.3382
1.30397
1.26691
1.21773
1.13898
1.00376
0.77489
0.412523
0.401201
0.730246
0.933038
1.04846
1.11271
1.15188
1.18229
1.2119
1.24304
1.27461
1.30393
1.32837
1.34647
1.35761
1.3613
1.35731
1.34594
1.32773
1.30334
1.27412
1.24269
1.21176
1.18248
1.15248
1.11375
1.04992
0.934744
0.731854
0.40186
0.387468
0.681981
0.857521
0.952216
1.00115
1.02952
1.05253
1.07684
1.10361
1.13095
1.15593
1.17619
1.19078
1.19954
1.20236
1.19919
1.19014
1.1754
1.15514
1.13022
1.10299
1.07642
1.05241
1.02981
1.00189
0.953399
0.859003
0.683435
0.38812
0.37008
0.627703
0.774875
0.848442
0.881912
0.899295
0.91467
0.933435
0.955603
0.978444
0.998787
1.01455
1.02536
1.03156
1.03343
1.03118
1.02466
1.01365
0.997825
0.977514
0.954775
0.932805
0.914339
0.899349
0.882409
0.849379
0.776146
0.628999
0.37073
0.348259
0.566586
0.684691
0.737299
0.755594
0.762011
0.769574
0.782593
0.799994
0.818193
0.833716
0.844754
0.851523
0.854919
0.855737
0.854531
0.850783
0.843776
0.832635
0.817126
0.799039
0.781853
0.769134
0.761933
0.755919
0.738033
0.685767
0.567716
0.348912
0.320823
0.497372
0.586455
0.619262
0.623442
0.619253
0.618798
0.625761
0.638233
0.651763
0.662447
0.668637
0.671137
0.671426
0.671004
0.671045
0.670391
0.66763
0.661315
0.650645
0.637254
0.62503
0.618375
0.619159
0.62369
0.619854
0.587356
0.49832
0.321489
0.285933
0.418546
0.480181
0.496199
0.488857
0.475152
0.46629
0.466269
0.473171
0.481908
0.487908
0.48934
0.487399
0.484106
0.482096
0.483763
0.486699
0.488386
0.486838
0.480884
0.472337
0.465726
0.466061
0.475204
0.489157
0.496738
0.480934
0.419303
0.286627
0.239369
0.325508
0.363387
0.368598
0.355551
0.336091
0.319484
0.310837
0.310157
0.313103
0.314501
0.311672
0.305456
0.298038
0.293842
0.2978
0.304916
0.310946
0.313727
0.312449
0.309762
0.310763
0.319685
0.336469
0.356035
0.369164
0.364006
0.326085
0.240096
0.206939
0.252004
0.272944
0.273669
0.260551
0.239822
0.217381
0.198279
0.185595
0.178774
0.173885
0.166756
0.155981
0.142166
0.132879
0.142242
0.15584
0.166557
0.173782
0.178919
0.186048
0.198977
0.218193
0.240635
0.26131
0.274367
0.273595
0.252675
0.207821
0.00989422
0.0105001
0.0107981
0.0107943
0.0105801
0.0102309
0.00980272
0.00933981
0.00890259
0.00855045
0.00833329
0.00827889
0.00836979
0.00852851
0.00860559
0.00850286
0.00836971
0.00830959
0.00838381
0.00862221
0.00899605
0.00944632
0.00991568
0.0103513
0.0107086
0.0109248
0.010905
0.0105859
0.00994724
0.0192683
0.0177787
0.0176471
0.0168275
0.015699
0.0138664
0.0122032
0.0109
0.00990875
0.00922707
0.00884786
0.00874171
0.00883705
0.00902224
0.0091163
0.00897621
0.00881499
0.00875259
0.00888812
0.00930422
0.0100278
0.0110744
0.0125415
0.0148511
0.015935
0.017089
0.0179485
0.0179776
0.0194985
0.0198339
0.0200981
0.0196487
0.0185811
0.0172076
0.0155909
0.0134003
0.0115887
0.0103583
0.00957054
0.00917739
0.00910178
0.00925712
0.00951749
0.00972357
0.00944147
0.0092174
0.00910354
0.00921123
0.00963826
0.0104767
0.0118512
0.0143507
0.0159345
0.0174407
0.0188603
0.0199761
0.0203466
0.0201054
0.0200533
0.0203328
0.0198239
0.018664
0.0172449
0.0157239
0.0142689
0.0119115
0.0103802
0.00950693
0.0091227
0.00910053
0.00943257
0.00987284
0.0111667
0.00971497
0.00928089
0.00909892
0.00914997
0.0095662
0.0104722
0.0119663
0.0137935
0.0159388
0.0174681
0.0189128
0.0200984
0.0205965
0.0203381
0.0201113
0.0201145
0.019508
0.0182823
0.0168765
0.0154303
0.0141835
0.0118463
0.0102026
0.00934442
0.00900928
0.00906481
0.0105975
0.00993599
0.0105478
0.0109525
0.00940348
0.00911259
0.00900573
0.00947525
0.0104021
0.0118972
0.0134836
0.0156151
0.0170864
0.0185135
0.0197585
0.0203766
0.0203967
0.020149
0.0198306
0.0190845
0.0177903
0.0164041
0.0150253
0.0138567
0.0114358
0.00990824
0.00933902
0.00912434
0.00903775
0.00993662
0.0101013
0.0104108
0.0103609
0.0105805
0.0101636
0.00902014
0.0104678
0.0111669
0.0115996
0.0138194
0.0152097
0.0166045
0.0180119
0.0193239
0.0200875
0.02043
0.0202407
0.0196291
0.0187241
0.0173516
0.0159697
0.0146358
0.0135023
0.0119279
0.00980168
0.00934953
0.00922558
0.00920066
0.00983889
0.0110637
0.0104847
0.0102537
0.00993533
0.00953052
0.00894513
0.0106138
0.0112202
0.0120871
0.0134945
0.0148199
0.0161652
0.0175694
0.0189599
0.0198826
0.0205164
0.0204232
0.0195599
0.0184917
0.0170296
0.0156294
0.0143148
0.0131878
0.0119049
0.0106074
0.00942561
0.00911609
0.00931617
0.00979859
0.0104262
0.0114592
0.0110198
0.00991519
0.00930941
0.00886272
0.0103979
0.0101905
0.0120719
0.0133576
0.0145013
0.0158246
0.0172481
0.0187284
0.0198122
0.0206944
0.020713
0.0196355
0.018408
0.0168456
0.015403
0.0140807
0.0129219
0.011751
0.0108199
0.00947
0.00907744
0.00925461
0.00983322
0.0102767
0.0117654
0.011423
0.0109124
0.0102522
0.00880275
0.00943044
0.0106445
0.0118444
0.0124852
0.0142632
0.0156013
0.0170675
0.0186471
0.0198853
0.0209823
0.0211162
0.0198524
0.0184741
0.0168027
0.0152959
0.0139388
0.0121242
0.0109242
0.0107876
0.0095476
0.0100699
0.00946221
0.0100326
0.0104036
0.0117443
0.0116568
0.0113307
0.0107298
0.00896924
0.00917004
0.0108088
0.0117728
0.0121945
0.0141344
0.0155013
0.0170307
0.0187183
0.0201057
0.0213993
0.0216366
0.0202027
0.0186842
0.0168976
0.0153098
0.0139141
0.011934
0.010748
0.0101557
0.00966841
0.0104481
0.00987744
0.0110208
0.0114107
0.0120435
0.0119576
0.0115115
0.0111886
0.01021
0.00939488
0.0108425
0.0117455
0.01262
0.0141243
0.0155252
0.0171338
0.0189367
0.020466
0.0219371
0.0223668
0.0206917
0.0190329
0.0171257
0.0154439
0.0140055
0.0124674
0.0114009
0.0108007
0.0105853
0.0109919
0.0110469
0.0118074
0.0121941
0.0125496
0.0124468
0.0119992
0.0115326
0.0108742
0.00990112
0.0111786
0.0119392
0.0128862
0.0142241
0.0156713
0.0173711
0.0192932
0.0209556
0.0225831
0.023156
0.0213027
0.0195124
0.0174813
0.0156967
0.0142029
0.012842
0.0118594
0.0113482
0.0112657
0.0116136
0.0119641
0.0125997
0.0129941
0.0132495
0.013135
0.0127271
0.0122276
0.0116769
0.0110866
0.0116077
0.0122242
0.0131622
0.0144356
0.0159377
0.0177369
0.0197794
0.0215651
0.0233402
0.0240374
0.0220281
0.0201159
0.0179598
0.0160671
0.0145109
0.0132224
0.0123113
0.0118948
0.011939
0.0123642
0.0128915
0.0135167
0.0139377
0.0141669
0.0140452
0.0136549
0.013122
0.0125441
0.0120136
0.01214
0.0126231
0.013515
0.0147612
0.0163231
0.0182265
0.0203902
0.0222992
0.0243303
0.0250213
0.0228666
0.0208391
0.0185584
0.0165546
0.0149325
0.0136755
0.0128422
0.0125299
0.0127216
0.0132778
0.0139535
0.0146308
0.0150984
0.0153342
0.0152063
0.0148031
0.0142096
0.0135413
0.0129429
0.0128162
0.0131541
0.0139716
0.0152034
0.0168271
0.0188374
0.0211222
0.023146
0.0253722
0.0261487
0.0238215
0.0216825
0.0192769
0.0171607
0.0154716
0.0142305
0.0134825
0.0132995
0.0136569
0.0143803
0.0152155
0.0159884
0.016523
0.0167823
0.0166458
0.0162015
0.015515
0.0147123
0.0139777
0.0136393
0.0138188
0.0145464
0.0157662
0.0174516
0.0195698
0.0219765
0.0241116
0.0265029
0.0274144
0.0248982
0.0226493
0.0201179
0.0178891
0.0161339
0.0149048
0.0142499
0.0142202
0.014769
0.0156942
0.0167162
0.0176217
0.0182438
0.0185374
0.0183875
0.0178773
0.0170651
0.0160891
0.0151689
0.0146176
0.0146245
0.0152507
0.0164553
0.0182005
0.0204265
0.0229559
0.0251984
0.0277484
0.0288023
0.0261014
0.0237449
0.021087
0.0187461
0.0169271
0.015713
0.0151615
0.0153077
0.0160777
0.01724
0.0184822
0.0195537
0.0202839
0.0206209
0.0204509
0.0198524
0.0188833
0.0176972
0.0165492
0.0157663
0.0155839
0.0160967
0.017279
0.0190804
0.0214131
0.0240655
0.0264118
0.0291195
0.0303167
0.0274378
0.0249777
0.0221929
0.0197406
0.0178619
0.01667
0.0162352
0.0165803
0.0176019
0.0190364
0.0205331
0.0218022
0.0226606
0.0230491
0.0228516
0.0221442
0.0209888
0.0195579
0.0181444
0.0171045
0.0167131
0.0170981
0.0182486
0.0201011
0.0225388
0.0253141
0.02776
0.0306254
0.0319681
0.0289173
0.0263592
0.0234477
0.0208853
0.0189517
0.0177922
0.0174903