/*--------------------------------*- C++ -*----------------------------------*\
| =========                 |                                                 |
| \\      /  F ield         | OpenFOAM: The Open Source CFD Toolbox           |
|  \\    /   O peration     | Version:  5.x                                   |
|   \\  /    A nd           | Web:      www.OpenFOAM.org                      |
|    \\/     M anipulation  |                                                 |
\*---------------------------------------------------------------------------*/
/*   Windows 32 and 64 bit porting by blueCAPE: http://www.bluecape.com.pt   *\
|  Based on Windows porting (2.0.x v4) by Symscape: http://www.symscape.com   |
\*---------------------------------------------------------------------------*/
FoamFile
{
    version     2.0;
    format      ascii;
    class       volScalarField;
    location    "4.05";
    object      k;
}
// * * * * * * * * * * * * * * * * * * * * * * * * * * * * * * * * * * * * * //

dimensions      [0 2 -2 0 0 0 0];

internalField   nonuniform List<scalar> 
400055
(
0.00337802
0.00352657
0.0035823
0.00357342
0.00350242
0.00339501
0.00327641
0.00312547
0.00295484
0.00278146
0.00262788
0.0025197
0.00247781
0.00249649
0.00252127
0.00248829
0.002482
0.00253763
0.00265537
0.00281544
0.002993
0.00316645
0.00332082
0.00344726
0.00354616
0.00361442
0.00361644
0.00355314
0.00340346
0.00350885
0.00394467
0.00385848
0.00383252
0.00374045
0.00373015
0.00364334
0.00351915
0.00337052
0.00322147
0.00310094
0.00303559
0.00303672
0.00308059
0.00311562
0.00307615
0.00303952
0.00304971
0.0031228
0.00324792
0.00339969
0.00354823
0.00366041
0.00367905
0.0037733
0.00386801
0.00388502
0.00397106
0.00353006
0.00356881
0.00383575
0.00399795
0.00401018
0.00391606
0.00377466
0.00373528
0.00367282
0.00357555
0.00347164
0.00339475
0.00337163
0.00340339
0.00343859
0.00347017
0.00345761
0.00340919
0.00338313
0.00341233
0.00349212
0.00359748
0.00368913
0.00369841
0.00379029
0.00394674
0.00404017
0.00401371
0.00386267
0.00360193
0.00360061
0.0038496
0.00406397
0.00409037
0.00399533
0.00382047
0.00371458
0.0036797
0.00365562
0.0036097
0.00358057
0.00359209
0.00361991
0.00359144
0.00343137
0.00366403
0.00365055
0.0036022
0.00359626
0.00362734
0.00367543
0.00371108
0.00379143
0.00385277
0.00402705
0.00412198
0.00408654
0.00387538
0.00363855
0.00361411
0.00386692
0.00409455
0.00412417
0.0040265
0.00383996
0.00372168
0.00367101
0.0036883
0.00367792
0.00368328
0.00371264
0.00355349
0.00374491
0.00365373
0.00357963
0.00376109
0.00371442
0.00370404
0.00368721
0.00369298
0.00369431
0.00379917
0.00387439
0.00405848
0.0041564
0.00412153
0.00389249
0.00365369
0.00361966
0.00387998
0.00410834
0.00413615
0.00403521
0.00384251
0.00372754
0.00370595
0.00371146
0.0036581
0.00366477
0.00376949
0.00368611
0.00376202
0.00375588
0.00371454
0.0036447
0.00361595
0.00373491
0.00358691
0.00360875
0.00371231
0.00375103
0.00387479
0.00406678
0.00416811
0.00413762
0.00390579
0.00365888
0.00362393
0.0038923
0.00411665
0.00414029
0.00403577
0.00383952
0.00373001
0.0036531
0.00370565
0.00363537
0.00363724
0.00373875
0.00372574
0.00367424
0.00379711
0.0037748
0.0037372
0.00369244
0.00375374
0.00357961
0.00359279
0.00364858
0.00370017
0.00387163
0.00406699
0.00417191
0.0041472
0.00391878
0.00366184
0.00363119
0.00390806
0.00412705
0.00414545
0.00403696
0.00383789
0.00373146
0.00364343
0.00362963
0.00361511
0.00368194
0.00372466
0.00374327
0.0037557
0.00375564
0.00364682
0.00376777
0.00376965
0.00377102
0.00361158
0.0036688
0.00364419
0.00371754
0.00386819
0.00406812
0.00417701
0.00415835
0.00393556
0.0036675
0.00364412
0.00393068
0.00414468
0.00415749
0.00404456
0.00384335
0.00373261
0.00364741
0.00361781
0.00361382
0.00371779
0.00378932
0.00375885
0.0037943
0.00379582
0.00364342
0.00374283
0.00372681
0.00379527
0.00370497
0.00364409
0.00365071
0.00373589
0.00387621
0.00407633
0.00418933
0.0041766
0.00395987
0.00367918
0.00366449
0.00396299
0.00417307
0.00418035
0.00406288
0.00386164
0.00374098
0.00366119
0.00363049
0.00363071
0.00368749
0.0037927
0.00378436
0.00383417
0.00378876
0.0036903
0.00378826
0.00375039
0.00381709
0.00375103
0.00365484
0.00366294
0.00374349
0.00389452
0.00409549
0.00421267
0.00420528
0.00399315
0.00369763
0.00369311
0.00400693
0.00421445
0.00421663
0.00409462
0.00389272
0.00375133
0.00366904
0.00366166
0.00366486
0.00367318
0.00380641
0.00374848
0.00379628
0.00380924
0.00374987
0.00379528
0.00379848
0.00378173
0.00373964
0.00363718
0.00364933
0.00373804
0.00392561
0.00412808
0.00424934
0.00424615
0.00403473
0.00371697
0.00372633
0.00406172
0.00426964
0.00426783
0.00414149
0.00393882
0.00375982
0.0036665
0.0036531
0.00366819
0.00370111
0.00378057
0.00379137
0.00384364
0.00387491
0.00383291
0.00383348
0.00380971
0.00375812
0.00375028
0.00365964
0.00367402
0.00377214
0.00397248
0.00417576
0.00430074
0.0042998
0.00408041
0.00366912
0.00375774
0.00412612
0.0043389
0.00433469
0.00420448
0.0040011
0.00380606
0.00370497
0.00369298
0.00371781
0.00375834
0.00383037
0.00388608
0.00394829
0.00398631
0.00395036
0.00391779
0.00386287
0.00378688
0.00375229
0.00371114
0.0037266
0.00383147
0.00403614
0.0042397
0.004368
0.00436839
0.00414217
0.00367662
0.00373121
0.00419663
0.00442198
0.00441751
0.00428411
0.00407997
0.00387765
0.00376514
0.00375565
0.00378659
0.00384439
0.0039329
0.00402362
0.00409969
0.0041424
0.00410719
0.00405003
0.00396585
0.00386583
0.00380495
0.00377414
0.00379484
0.00391062
0.0041169
0.0043205
0.00445157
0.00445211
0.00421808
0.00371165
0.0037225
0.00428091
0.00451934
0.00451635
0.00438057
0.00417575
0.00397017
0.0038469
0.00383369
0.00387788
0.00396295
0.00408005
0.00420208
0.00429451
0.00434236
0.00430555
0.00422826
0.00411574
0.00398784
0.00389702
0.00385774
0.00388307
0.00400854
0.00421496
0.0044184
0.00455149
0.00455067
0.00430572
0.003759
0.0037463
0.00437589
0.00463097
0.00463118
0.00449397
0.00428878
0.00408245
0.00395235
0.00393613
0.0039986
0.00411724
0.00426919
0.00442157
0.00453196
0.0045858
0.00454633
0.00445076
0.00430996
0.00415071
0.00402681
0.00396964
0.00399505
0.00412565
0.00433064
0.00453348
0.00466759
0.00466368
0.00440576
0.0037869
0.00379747
0.00448357
0.0047571
0.00476195
0.00462436
0.00441947
0.00421456
0.00408283
0.00406859
0.00415325
0.00430915
0.00449933
0.00468229
0.00481173
0.00487226
0.00482955
0.0047162
0.00454668
0.00435353
0.00419421
0.00411343
0.00413264
0.00426264
0.00446431
0.00466581
0.00479979
0.00479072
0.00451326
0.00383142
0.00386883
0.00460445
0.00489791
0.00490875
0.00477192
0.00456831
0.00436704
0.0042391
0.00423335
0.004344
0.00453943
0.00476973
0.00498393
0.0051332
0.0052009
0.0051545
0.00502326
0.0048244
0.0045955
0.0043989
0.00429016
0.00429661
0.00442033
0.0046165
0.00481558
0.00494821
0.00493265
0.0046338
0.0038965
0.00395612
0.00473884
0.00505369
0.00507185
0.00493703
0.00473597
0.00454073
0.00442178
0.00443111
0.00457151
0.00480803
0.00507948
0.00532555
0.00549523
0.00557045
0.00551988
0.00537042
0.00514167
0.00487571
0.00464029
0.00449995
0.00448753
0.00459966
0.0047879
0.0049832
0.00511314
0.00508979
0.0047685
0.00398029
0.004057
0.0048871
0.00522494
0.00525179
0.00512032
0.00492333
0.0047367
0.0046316
0.00466207
0.00483573
0.00511439
0.00542735
0.00570568
0.00589612
0.0059791
0.00592388
0.00575589
0.00549695
0.00519321
0.00491782
0.00474279
0.00470606
0.00480178
0.00497944
0.00516932
0.00529512
0.00526261
0.00491752
0.00408009
0.00417006
0.00504967
0.00541242
0.00544943
0.00532276
0.00513157
0.00495628
0.00486955
0.00492645
0.00513636
0.0054577
0.00581204
0.00612267
0.00633397
0.00642483
0.00636454
0.0061779
0.00588879
0.00554705
0.00523104
0.00501887
0.00495316
0.00502806
0.00519237
0.00537498
0.00549505
0.00545184
0.00508104
0.00419365
0.00429446
0.0052271
0.00561712
0.00566597
0.00554568
0.00536222
0.00520109
0.00513689
0.00522466
0.00547308
0.00583709
0.00623222
0.00657485
0.00680691
0.00690568
0.00683995
0.00663468
0.00631579
0.00593641
0.00557974
0.00532866
0.00523012
0.00528019
0.00542826
0.00560155
0.00571417
0.00565848
0.00525948
0.00431936
0.00442966
0.00542005
0.0058403
0.00590294
0.0057908
0.00561717
0.0054731
0.00543519
0.00555738
0.00584575
0.0062518
0.00668658
0.0070605
0.00731301
0.00741966
0.0073482
0.00712454
0.00677667
0.00636059
0.00596394
0.00567297
0.00553852
0.00556019
0.00568911
0.00585086
0.00595409
0.00588384
0.00545349
0.00445619
0.00457537
0.00562934
0.00608347
0.00616224
0.00606028
0.00589875
0.00577461
0.00576632
0.00592563
0.00625454
0.00670135
0.00717545
0.00757902
0.00785047
0.00796484
0.00788753
0.00764673
0.00727134
0.0068192
0.00638396
0.00605292
0.00588031
0.00587042
0.00597729
0.00612511
0.00621678
0.00612949
0.00566398
0.00460355
0.00473146
0.00585597
0.00634843
0.00644615
0.00635668
0.00620969
0.00610832
0.0061325
0.00633075
0.00669994
0.00718557
0.00769785
0.0081305
0.00842044
0.0085417
0.0084588
0.00820156
0.00779946
0.00731222
0.00684044
0.00646994
0.00625772
0.00621363
0.00629562
0.00642697
0.00650458
0.00639727
0.00589202
0.00476113
0.00489796
0.00610108
0.00663722
0.00675732
0.00668304
0.00655319
0.0064773
0.00653629
0.00677447
0.00718286
0.00770467
0.00825286
0.00871308
0.00902107
0.00914926
0.00906063
0.00878725
0.00836004
0.00783995
0.00733435
0.00692576
0.00667332
0.00659294
0.00664737
0.00675951
0.0068202
0.00668929
0.00613882
0.00492886
0.00507501
0.006366
0.0069522
0.00709878
0.00704281
0.00693289
0.00688505
0.0069806
0.00725886
0.00770461
0.00825932
0.00884042
0.00932612
0.00965105
0.00978594
0.00969178
0.00940328
0.00895305
0.0084031
0.00786706
0.00742248
0.00713003
0.00701185
0.00703621
0.00712626
0.00716674
0.00700791
0.00640574
0.00510681
0.00526282
0.00665221
0.00729596
0.00747395
0.00743991
0.00735288
0.00733542
0.00746868
0.00778635
0.00826692
0.00885087
0.00946098
0.00996949
0.01031
0.0104512
0.0103519
0.0100497
0.00957904
0.00900283
0.0084403
0.00796251
0.00763108
0.00747423
0.00746626
0.00753118
0.00754765
0.00735576
0.00669427
0.00529517
0.00546166
0.00696135
0.00767141
0.00788661
0.00787866
0.00781763
0.00783264
0.0080041
0.00835972
0.00887191
0.00948079
0.0101155
0.0106437
0.010998
0.0111452
0.0110413
0.010727
0.010239
0.00964075
0.00905618
0.00854861
0.00817999
0.00798429
0.00794204
0.00797864
0.00796674
0.0077357
0.00700605
0.00549423
0.00567188
0.00729524
0.0080817
0.0083409
0.00836379
0.00833201
0.00838124
0.00859069
0.00898201
0.00952201
0.0101508
0.0108055
0.0113499
0.0117161
0.0118686
0.0117608
0.0114365
0.0109346
0.0103189
0.00971717
0.00918382
0.00878056
0.00854653
0.00846842
0.0084734
0.00842816
0.0081509
0.00734284
0.0057044
0.00589385
0.00765581
0.00853023
0.00884128
0.00890035
0.00890118
0.00898597
0.00923249
0.00965651
0.0102199
0.0108632
0.0115328
0.0120898
0.0124656
0.0126229
0.0125121
0.01218
0.0116676
0.0110396
0.010426
0.00987142
0.00943681
0.00916569
0.00905056
0.00902052
0.00893639
0.00860474
0.00770656
0.00592612
0.00612797
0.00804513
0.00902063
0.00939247
0.00949367
0.00953051
0.00965173
0.00993364
0.0103866
0.0109687
0.0116203
0.0122998
0.0128655
0.0132487
0.01341
0.0132972
0.0129595
0.0124407
0.0118056
0.0111858
0.0106148
0.0101528
0.00984662
0.00969378
0.00962533
0.00949617
0.00910088
0.00809929
0.0061599
0.00637467
0.0084654
0.00955669
0.00999939
0.0101492
0.0102254
0.0103835
0.0106983
0.011176
0.0117713
0.0124258
0.0131093
0.0136797
0.0140679
0.0142324
0.0141185
0.0137778
0.0132563
0.0126198
0.0119995
0.0114176
0.0109328
0.0105942
0.0104035
0.0102933
0.0101124
0.00964316
0.00852322
0.00640629
0.00663437
0.00891891
0.0101424
0.0106671
0.0108726
0.0109914
0.011186
0.0115307
0.0120279
0.0126309
0.0132824
0.0139642
0.0145353
0.0149262
0.015093
0.0149789
0.0146377
0.0141176
0.0134854
0.0128704
0.0122832
0.0117807
0.011413
0.0111849
0.0110299
0.0107903
0.0102355
0.00898064
0.0066658
0.00690756
0.009408
0.0107816
0.0114006
0.0116691
0.0118336
0.0120639
0.0124346
0.012946
0.0135509
0.0141936
0.0148678
0.0154358
0.0158267
0.0159949
0.0158816
0.0155425
0.0150276
0.0144057
0.0138016
0.013215
0.0127003
0.0123076
0.0120432
0.0118404
0.0115346
0.0108821
0.00947397
0.006939
0.00719468
0.00993507
0.0114784
0.0122047
0.0125439
0.0127568
0.0130215
0.0134136
0.0139334
0.0145342
0.015163
0.0158234
0.0163844
0.016773
0.0169417
0.01683
0.0164953
0.0159896
0.0153844
0.0147961
0.0142158
0.0136949
0.0132818
0.0129829
0.0127299
0.0123504
0.0115867
0.0100056
0.00722642
0.00749623
0.0105025
0.0122365
0.0130841
0.0135017
0.0137653
0.0140622
0.014471
0.014993
0.0155841
0.0161942
0.0168346
0.0173849
0.0177687
0.0179369
0.0178278
0.0174998
0.0170069
0.0164244
0.0158568
0.0152886
0.0147674
0.0143391
0.014008
0.0137028
0.013242
0.0123533
0.010578
0.0075286
0.00781269
0.0111127
0.0130596
0.0140429
0.0145465
0.0148627
0.0151892
0.0156093
0.0161274
0.0167031
0.0172902
0.0179046
0.0184407
0.0188176
0.0189843
0.0188785
0.0185593
0.0180828
0.0175289
0.016986
0.0164353
0.0159202
0.0154823
0.015122
0.0147631
0.0142135
0.0131854
0.0111934
0.00784602
0.00814452
0.0117677
0.013951
0.0150845
0.0156816
0.0160516
0.0164047
0.0168305
0.0173386
0.0178936
0.0184539
0.0190369
0.0195555
0.0199236
0.0200879
0.0199861
0.0196776
0.0192205
0.0187004
0.0181859
0.017658
0.017155
0.0167133
0.0163272
0.0159136
0.0152682
0.014086
0.011854
0.00817913
0.00849218
0.0124697
0.0149132
0.0162117
0.0169093
0.017334
0.0177102
0.018136
0.0186282
0.0191575
0.0196878
0.0202344
0.0207328
0.0210902
0.0212516
0.0211542
0.0208581
0.020423
0.0199412
0.0194583
0.018958
0.0184731
0.0180334
0.0176254
0.0171566
0.0164084
0.0150576
0.0125615
0.00852832
0.00885605
0.0132203
0.0159483
0.0174264
0.0182308
0.0187106
0.0191061
0.0195263
0.0199969
0.0204962
0.0209939
0.0215004
0.021976
0.0223214
0.022479
0.0223868
0.0221043
0.0216939
0.0212534
0.0208044
0.020336
0.019875
0.0194431
0.0190171
0.0184929
0.0176358
0.0161021
0.0133177
0.00889391
0.00923647
0.0140208
0.0170576
0.0187291
0.0196463
0.0201811
0.0205922
0.0210014
0.0214452
0.0219105
0.0223736
0.022838
0.0232885
0.0236207
0.0237743
0.0236875
0.0234198
0.0230364
0.0226385
0.0222252
0.0217923
0.0213605
0.0209419
0.0205017
0.0199224
0.0189508
0.0172206
0.0141236
0.00927616
0.0096337
0.0148721
0.0182415
0.0201194
0.0211548
0.0217441
0.0221671
0.0225603
0.0229726
0.0234008
0.023828
0.0242534
0.0246741
0.0249919
0.0251411
0.0250601
0.0248085
0.0244578
0.0240975
0.0237209
0.0233268
0.0229287
0.0225284
0.0220778
0.0214438
0.0203526
0.0184132
0.0149802
0.0096752
0.0100479
0.0157745
0.0194991
0.0215958
0.0227538
0.0233973
0.0238285
0.0242012
0.0245781
0.0249666
0.0253574
0.0257482
0.0261357
0.0264391
0.0265837
0.0265087
0.026273
0.0259573
0.0256309
0.0252913
0.0249383
0.0245778
0.0242002
0.0237426
0.0230546
0.0218394
0.0196792
0.0158877
0.0100911
0.0104791
0.0167275
0.0208288
0.0231552
0.0244399
0.0251368
0.0255733
0.0259216
0.02626
0.0266072
0.0269618
0.0273218
0.0276793
0.027965
0.0281051
0.028036
0.0278207
0.0275344
0.0272384
0.0269355
0.0266252
0.0263053
0.025954
0.0254924
0.024751
0.0234083
0.0210168
0.0168456
0.0105238
0.0109271
0.0177301
0.0222277
0.0247935
0.0262083
0.0269581
0.0273971
0.0277181
0.0280157
0.028321
0.0286405
0.0289733
0.0293079
0.0295781
0.0297116
0.0296511
0.029452
0.0291883
0.0289193
0.0286522
0.0283851
0.0281078
0.0277855
0.0273222
0.0265282
0.025055
0.0224231
0.0178531
0.010973
0.0113918
0.0187805
0.0236916
0.0265051
0.0280529
0.0288551
0.0292947
0.0295863
0.029842
0.0301057
0.030392
0.0307013
0.0310188
0.0312782
0.0314073
0.0313526
0.0311647
0.0309178
0.0306722
0.0304389
0.0302147
0.0299809
0.0296893
0.0292262
0.0283802
0.0267741
0.0238942
0.0189082
0.0114386
0.0118727
0.019876
0.0252155
0.0282833
0.0299665
0.030821
0.03126
0.0315211
0.0317349
0.0319585
0.0322144
0.0325041
0.0328095
0.0330621
0.0331885
0.0331373
0.0329562
0.0327211
0.0324949
0.0322928
0.0321099
0.0319193
0.0316591
0.0311974
0.0302998
0.028559
0.0254247
0.0200084
0.0119201
0.0123692
0.0210133
0.026793
0.0301202
0.0319405
0.0328475
0.0332855
0.0335163
0.0336894
0.0338755
0.0341045
0.034379
0.0346768
0.0349263
0.0350514
0.0350019
0.0348239
0.0345956
0.0343845
0.0342099
0.0340656
0.0339168
0.0336878
0.0332278
0.0322788
0.0304018
0.0270084
0.0211503
0.0124169
0.0128807
0.0221883
0.0284167
0.0320067
0.0339656
0.0349255
0.0353632
0.0355649
0.0356997
0.0358519
0.0360584
0.0363223
0.0366171
0.0368669
0.0369921
0.0369428
0.0367641
0.0365379
0.0363369
0.0361853
0.036076
0.0359662
0.0357669
0.0353083
0.0343077
0.0322934
0.0286378
0.0223297
0.0129283
0.0134062
0.023396
0.0300784
0.0339327
0.036031
0.0370448
0.0374836
0.0376588
0.037759
0.0378818
0.0380708
0.0383292
0.0386256
0.0388789
0.0390056
0.038955
0.0387722
0.0385433
0.0383472
0.0382133
0.0381341
0.0380595
0.0378874
0.0374287
0.0363759
0.0342237
0.0303045
0.0235415
0.0134535
0.0139445
0.0246307
0.0317684
0.0358869
0.038125
0.0391941
0.0396366
0.0397888
0.0398591
0.0399581
0.0401355
0.0403938
0.0406963
0.0409564
0.0410858
0.0410327
0.0408425
0.0406061
0.0404093
0.0402869
0.0402318
0.0401875
0.0400389
0.0395779
0.0384715
0.0361811
0.0319987
0.02478
0.0139913
0.0144943
0.0258857
0.0334766
0.037857
0.040235
0.0413611
0.0418106
0.0419446
0.0419909
0.0420725
0.0422446
0.0425085
0.0428218
0.0430919
0.0432253
0.0431683
0.0429675
0.042719
0.0425153
0.0423978
0.04236
0.0423397
0.0422099
0.0417433
0.0405819
0.0381534
0.0337098
0.0260384
0.0145406
0.0150539
0.0271537
0.0351914
0.0398299
0.0423469
0.0435323
0.0439929
0.0441145
0.0441437
0.0442151
0.0443889
0.0446645
0.0449933
0.0452763
0.0454146
0.0453526
0.0451383
0.0448729
0.0446563
0.0445362
0.0445079
0.0445046
0.0443877
0.0439114
0.0426928
0.0401268
0.0354265
0.0273093
0.0150996
0.0156216
0.0284267
0.0369006
0.0417911
0.044446
0.045693
0.0461698
0.0462857
0.0463053
0.0463746
0.0465575
0.0468511
0.0471999
0.0474987
0.0476428
0.0475745
0.0473438
0.047057
0.0468212
0.0466907
0.0466635
0.0466692
0.0465586
0.0460676
0.0447893
0.042087
0.0371362
0.0285845
0.0156667
0.0161951
0.0296958
0.0385912
0.0437253
0.0465161
0.0478272
0.0483258
0.0484436
0.0484623
0.048538
0.0487378
0.0490557
0.0494292
0.0497461
0.0498965
0.0498209
0.0495712
0.0492587
0.0489972
0.0488481
0.0488132
0.0488192
0.0487073
0.0481959
0.0468552
0.0440187
0.0388259
0.0298551
0.0162396
0.0167721
0.0309516
0.0402493
0.0456165
0.0485401
0.0499178
0.0504444
0.0505723
0.0505993
0.0506904
0.0509152
0.0512638
0.0516662
0.0520033
0.0521604
0.0520766
0.0518055
0.0514631
0.0511695
0.0509937
0.0509417
0.0509388
0.0508173
0.0502794
0.0488735
0.0459057
0.0404816
0.0311115
0.0168159
0.01735
0.0321841
0.0418603
0.0474477
0.0505
0.0519466
0.0525076
0.0526543
0.0526992
0.0528151
0.0530732
0.0534587
0.0538937
0.0542529
0.054417
0.054324
0.0540295
0.0536532
0.0533212
0.0531104
0.0530319
0.0530107
0.052871
0.0522999
0.0508264
0.0477312
0.0420889
0.0323437
0.0173931
0.0179257
0.0333828
0.0434093
0.0492014
0.0523771
0.0538944
0.0544962
0.0546708
0.0547434
0.0548936
0.0551929
0.0556212
0.0560926
0.0564753
0.0566465
0.0565435
0.0562237
0.0558099
0.0554336
0.0551797
0.0550654
0.055016
0.0548493
0.0542386
0.0526953
0.0494779
0.043633
0.0335414
0.0179682
0.0184963
0.034537
0.0448811
0.0508598
0.054152
0.0557412
0.0563901
0.0566015
0.0567116
0.0569054
0.0572536
0.0577303
0.058241
0.0586484
0.0588268
0.0587133
0.0583666
0.057912
0.0574858
0.0571811
0.0570219
0.0569348
0.0567322
0.0560754
0.054461
0.0511283
0.045099
0.0346939
0.0185381
0.0190585
0.0356358
0.0462604
0.0524049
0.0558051
0.0574665
0.0581682
0.058425
0.0585821
0.0588284
0.0592327
0.0597625
0.0603152
0.0607482
0.0609338
0.0608094
0.0604345
0.0599362
0.0594552
0.0590926
0.0588798
0.0587458
0.0584987
0.0577901
0.0561041
0.0526646
0.0464718
0.0357904
0.0190995
0.0196086
0.0366683
0.0475321
0.0538189
0.0573168
0.0590496
0.0598091
0.0601191
0.0603319
0.0606387
0.0611057
0.0616928
0.0622895
0.0627486
0.0629413
0.0628056
0.0624018
0.0618576
0.0613176
0.0608909
0.0606165
0.0604268
0.0601272
0.0593617
0.057605
0.0540693
0.0477367
0.0368201
0.0196489
0.0201431
0.0376237
0.0486814
0.0550845
0.0586679
0.0604697
0.0612906
0.0616607
0.0619368
0.0623113
0.0628464
0.0634944
0.0641364
0.0646218
0.0648214
0.0646743
0.064241
0.0636494
0.0630471
0.0625509
0.0622079
0.0619546
0.0615956
0.0607693
0.0589447
0.0553254
0.0488792
0.0377724
0.0201826
0.0206581
0.0384914
0.0496943
0.0561852
0.0598399
0.0617065
0.062591
0.0630263
0.0633716
0.0638194
0.0644273
0.0651389
0.0658271
0.0663383
0.0665445
0.0663862
0.0659236
0.0652837
0.0646166
0.0640463
0.0636288
0.0633057
0.0628816
0.0619925
0.0601043
0.0564162
0.0498852
0.0386367
0.0206968
0.0211496
0.0392616
0.0505577
0.0571055
0.060815
0.0627404
0.0636883
0.0641913
0.0646093
0.0651344
0.0658189
0.0665966
0.0673313
0.0678678
0.0680801
0.067911
0.0674195
0.066731
0.0659967
0.0653487
0.0648526
0.0644556
0.0639632
0.0630113
0.0610663
0.0573265
0.0507418
0.0394032
0.0211873
0.0216136
0.0399249
0.0512598
0.0578314
0.0615771
0.0635525
0.0645609
0.0651314
0.0656494
0.0662706
0.0670151
0.0678363
0.0686179
0.0691791
0.0693972
0.0692175
0.0686978
0.0679605
0.0671775
0.066468
0.0658741
0.0653797
0.0648188
0.0638068
0.0618142
0.058042
0.0514367
0.0400623
0.0216502
0.0220459
0.0404731
0.0517903
0.0583507
0.0621115
0.0641255
0.0651885
0.0658731
0.0665145
0.0672218
0.0680238
0.0688697
0.0696552
0.07024
0.0704639
0.0702741
0.0697273
0.0689808
0.0681721
0.0674035
0.0667215
0.0661004
0.065428
0.0643619
0.0623335
0.0585502
0.0519596
0.0406057
0.0220812
0.0224423
0.0408988
0.0521406
0.0586531
0.0624059
0.0644446
0.0656028
0.0664346
0.0671796
0.067964
0.0688199
0.0696923
0.0704752
0.0710413
0.071256
0.0710708
0.0705381
0.0697918
0.068955
0.0681306
0.0673697
0.0666421
0.0658204
0.0646621
0.0626117
0.0588409
0.0523016
0.041026
0.0224763
0.0227988
0.041196
0.0523041
0.0587311
0.0624511
0.0645249
0.0658439
0.0667914
0.0676236
0.0684765
0.0693815
0.0702796
0.0710644
0.071618
0.0718259
0.0716438
0.0711198
0.0703686
0.0695039
0.0686282
0.0677969
0.0669797
0.0660403
0.0647214
0.06264
0.0589061
0.0524559
0.0413172
0.0228312
0.023111
0.0413597
0.0522762
0.0585799
0.062246
0.0644529
0.0658866
0.0669239
0.0678293
0.0687421
0.0696902
0.070611
0.0713985
0.0719431
0.0721456
0.0719661
0.0714476
0.0706902
0.0697999
0.0688787
0.0679857
0.0670934
0.0660627
0.0646295
0.0624177
0.0587414
0.0524181
0.0414745
0.023142
0.0233748
0.0413864
0.0520547
0.0582007
0.0618946
0.0642007
0.0657118
0.066817
0.0677826
0.0687464
0.0697307
0.0706694
0.071458
0.0719948
0.0721926
0.0720154
0.0715016
0.0707393
0.0698275
0.0688675
0.067922
0.0669681
0.0658686
0.0643583
0.0620499
0.0583485
0.0521863
0.0414944
0.0234045
0.0235858
0.0412736
0.0516408
0.057656
0.061395
0.0637482
0.0653052
0.0664589
0.0674726
0.0684779
0.0694903
0.0704408
0.0712274
0.0717558
0.0719493
0.0717745
0.071266
0.0705017
0.0695741
0.0685832
0.0675949
0.066592
0.0654435
0.0638883
0.0615347
0.0577912
0.051762
0.0413749
0.0236145
0.0237398
0.0410203
0.0510445
0.0570013
0.0607242
0.0630809
0.064656
0.0658408
0.0668904
0.0679272
0.0689589
0.0699142
0.0706944
0.071213
0.0714018
0.07123
0.0707283
0.0699663
0.0690298
0.0680167
0.0669957
0.0659566
0.0647772
0.0632047
0.0608496
0.0571245
0.0511555
0.0411151
0.0237675
0.0238326
0.0406305
0.0503684
0.0562112
0.0598654
0.0621877
0.0637565
0.064956
0.0660292
0.0670869
0.0681286
0.0690809
0.0698496
0.0703562
0.0705396
0.0703715
0.0698789
0.0691242
0.0681868
0.0671609
0.0661179
0.0650552
0.0638615
0.0622966
0.0599775
0.056323
0.0504712
0.040719
0.0238597
0.0238914
0.0401643
0.0495934
0.0552664
0.0588056
0.0610603
0.0626003
0.0637989
0.0648833
0.0659509
0.0669928
0.0679338
0.0686856
0.0691774
0.0693545
0.0691909
0.0687102
0.0679685
0.0670387
0.0660101
0.0649562
0.0638824
0.0626905
0.0611555
0.0589055
0.0553678
0.0496883
0.0402473
0.0239187
0.0239121
0.0396203
0.0486996
0.0541519
0.0575348
0.0596919
0.0611824
0.0623648
0.0634477
0.0645138
0.0655457
0.066467
0.0671963
0.06767
0.0678397
0.0676813
0.067216
0.0664935
0.0655802
0.0645593
0.0635057
0.0624334
0.0612586
0.0597745
0.0576235
0.0542434
0.0487869
0.0396978
0.0239392
0.0238873
0.0389842
0.0476701
0.0528548
0.0560442
0.0580763
0.0594976
0.0606486
0.0617173
0.0627703
0.0637817
0.064675
0.0653759
0.0658279
0.0659889
0.0658368
0.0653904
0.0646935
0.0638058
0.0628034
0.0617615
0.0607031
0.0595605
0.058147
0.0561223
0.052937
0.04775
0.0390562
0.0239141
0.0238091
0.0382424
0.04649
0.0513636
0.0543252
0.0562067
0.05754
0.0586446
0.0596863
0.0607144
0.061695
0.0625517
0.0632179
0.0636446
0.0637954
0.0636507
0.0632271
0.0625626
0.0617096
0.0607365
0.059718
0.0586859
0.0575901
0.0562659
0.054393
0.0514368
0.0465628
0.038309
0.0238353
0.0236684
0.0373815
0.0451451
0.0496664
0.0523682
0.0540751
0.055302
0.0563457
0.0573475
0.0583391
0.0592781
0.0600896
0.0607147
0.0611119
0.0612511
0.061115
0.0607184
0.0600934
0.0592844
0.0583514
0.0573677
0.0563745
0.05534
0.0541231
0.052426
0.0497308
0.0452108
0.0374427
0.0236939
0.0234546
0.036387
0.0436199
0.0477497
0.0501616
0.0516707
0.0527737
0.0537419
0.0546915
0.0556349
0.0565216
0.0572791
0.0578558
0.0582193
0.0583451
0.0582192
0.057854
0.057276
0.0565202
0.0556384
0.0547013
0.0537593
0.0528001
0.0517079
0.0502096
0.0478056
0.0436788
0.0364429
0.0234792
0.023155
0.0352422
0.0418972
0.0455975
0.0476905
0.0489794
0.0499414
0.0508202
0.0517053
0.0525892
0.0534127
0.0541065
0.0546274
0.0549522
0.0550628
0.0549489
0.0546202
0.0540969
0.0534042
0.0525846
0.0517058
0.0508271
0.049957
0.0490064
0.0477291
0.0456453
0.0419496
0.035293
0.0231789
0.0227542
0.0339267
0.0399554
0.0431894
0.0449356
0.0459824
0.0467864
0.0475624
0.0483714
0.0491846
0.0499338
0.0505535
0.0510102
0.0512905
0.0513839
0.0512843
0.0509979
0.0505379
0.0499188
0.0491727
0.0483635
0.04756
0.0467924
0.046
0.0449655
0.0432298
0.0400019
0.0339729
0.0227773
0.0222322
0.0324144
0.0377675
0.0404997
0.0418722
0.0426548
0.0432837
0.0439438
0.0446659
0.0453976
0.0460611
0.0465954
0.046978
0.047207
0.0472807
0.0471982
0.0469612
0.0465743
0.0460401
0.0453791
0.0446507
0.0439336
0.0432815
0.0426641
0.0418943
0.0405334
0.0378085
0.0324566
0.0222547
0.0215625
0.0306698
0.035298
0.0374957
0.0384692
0.0389647
0.0394
0.0399309
0.0405559
0.0411962
0.0417625
0.0421983
0.0424948
0.0426636
0.0427143
0.0426528
0.0424745
0.0421726
0.0417361
0.0411717
0.0405346
0.0399144
0.0393914
0.0389674
0.0384847
0.0375235
0.0353338
0.0307083
0.021584
0.0207072
0.028643
0.0325008
0.0341391
0.034692
0.0348758
0.0350945
0.0354799
0.0359975
0.0365374
0.036995
0.0373175
0.0375126
0.0376083
0.0376302
0.0375961
0.0374894
0.0372878
0.0369637
0.0365079
0.0359715
0.0354592
0.035082
0.0348742
0.0347028
0.0341619
0.0325314
0.0286784
0.0207273
0.0196069
0.0262558
0.0293097
0.0303842
0.030508
0.0303542
0.0303222
0.0305356
0.0309313
0.031362
0.0317002
0.0318925
0.0319654
0.0319675
0.0319503
0.0319546
0.0319404
0.0318599
0.0316652
0.031329
0.0309028
0.030514
0.0303094
0.0303517
0.0305165
0.0304033
0.0293354
0.0262888
0.019624
0.0181624
0.0233959
0.0256482
0.0262071
0.0259332
0.0254251
0.0250841
0.0250628
0.0252963
0.0255998
0.0258068
0.0258499
0.0257704
0.0256408
0.0255622
0.0256285
0.025745
0.0258163
0.025771
0.0255672
0.0252707
0.0250467
0.0250779
0.0254279
0.0259439
0.0262247
0.0256707
0.0234275
0.0181739
0.0161399
0.019776
0.0212913
0.0214913
0.02097
0.0201778
0.0194796
0.019097
0.0190461
0.0191529
0.0192007
0.0190733
0.0187993
0.0184663
0.0182754
0.0184584
0.0187786
0.0190455
0.0191727
0.0191316
0.0190363
0.0190998
0.019492
0.0201949
0.0209893
0.0215122
0.0213146
0.0198069
0.0161416
0.012784
0.0145473
0.0153385
0.0153638
0.0148642
0.0140546
0.0131448
0.0123355
0.0117715
0.0114525
0.0112206
0.0108902
0.0103837
0.00970503
0.00923083
0.00971785
0.0103848
0.0108878
0.0112232
0.0114672
0.0118001
0.0123731
0.0131839
0.0140898
0.0148941
0.0153892
0.0153601
0.014565
0.0127717
0.00390609
0.00415263
0.00427834
0.00428228
0.00419321
0.00405042
0.00387991
0.00369429
0.00351383
0.00336238
0.00326186
0.00322548
0.00324879
0.00330448
0.00333675
0.00329696
0.0032488
0.00323426
0.00327896
0.00338987
0.00355133
0.00373892
0.00393219
0.00411126
0.00425285
0.00433245
0.00431627
0.00419156
0.003941
0.00395257
0.00507797
0.00538451
0.0053869
0.00522564
0.00501883
0.00477547
0.00455201
0.00435644
0.0042105
0.00413526
0.00413587
0.0041936
0.00427024
0.00431182
0.00426335
0.00419341
0.00414224
0.00414653
0.00422911
0.00438425
0.00458785
0.00481607
0.00504591
0.00529358
0.00543764
0.00542627
0.00513417
0.00397646
0.00402419
0.00533254
0.00575843
0.00578296
0.00561714
0.00538428
0.00513442
0.00489853
0.00473733
0.00463994
0.00461715
0.00466464
0.00475705
0.00484357
0.00489644
0.00484668
0.00475908
0.00466914
0.00462487
0.00465163
0.00475814
0.00492498
0.00514148
0.00542845
0.00567664
0.00583932
0.00580936
0.00538639
0.00404857
0.00404943
0.00540227
0.00587762
0.0059048
0.00573315
0.00548631
0.0051942
0.00500666
0.00486938
0.00482294
0.00484996
0.00493912
0.00505798
0.00517183
0.00517781
0.00516295
0.00506604
0.0049441
0.00485855
0.00483224
0.0048883
0.00504093
0.00526108
0.00553329
0.00578822
0.00596161
0.00593122
0.00545303
0.00407515
0.00405385
0.00542797
0.00592028
0.005939
0.00575815
0.0055017
0.00519851
0.00502619
0.00491379
0.00490456
0.00497127
0.0051001
0.0052115
0.00534748
0.00540186
0.0053253
0.00524783
0.00510528
0.00498539
0.00491674
0.0049287
0.0050607
0.00527909
0.00555096
0.00581169
0.00599481
0.00597345
0.00547644
0.00408133
0.00405663
0.00544065
0.00593243
0.00593763
0.00574658
0.00548308
0.00517452
0.00499968
0.00492811
0.00495588
0.00505569
0.00520017
0.00535575
0.00549266
0.00554416
0.00548215
0.00533854
0.00518561
0.00506173
0.00494185
0.00492342
0.005029
0.00522929
0.00553443
0.00580029
0.00599292
0.00598499
0.00548761
0.00408572
0.00406763
0.00545828
0.00594184
0.00593185
0.00572999
0.00545959
0.00514944
0.00497284
0.00493297
0.00498522
0.00511282
0.00529236
0.00545591
0.00555143
0.00565028
0.00559723
0.00546353
0.0052957
0.00512909
0.00497254
0.00492892
0.00500621
0.00522124
0.00551361
0.00578513
0.00598768
0.00599454
0.00550462
0.00409794
0.00409155
0.00549007
0.00596362
0.00593855
0.00572522
0.00544722
0.00513799
0.00496523
0.0049355
0.00502272
0.00516195
0.00537782
0.00556227
0.00568728
0.00571526
0.00569009
0.00557491
0.00537962
0.0052067
0.00502601
0.00496755
0.00500288
0.00519251
0.00550398