/*--------------------------------*- C++ -*----------------------------------*\
| =========                 |                                                 |
| \\      /  F ield         | OpenFOAM: The Open Source CFD Toolbox           |
|  \\    /   O peration     | Version:  5.x                                   |
|   \\  /    A nd           | Web:      www.OpenFOAM.org                      |
|    \\/     M anipulation  |                                                 |
\*---------------------------------------------------------------------------*/
/*   Windows 32 and 64 bit porting by blueCAPE: http://www.bluecape.com.pt   *\
|  Based on Windows porting (2.0.x v4) by Symscape: http://www.symscape.com   |
\*---------------------------------------------------------------------------*/
FoamFile
{
    version     2.0;
    format      ascii;
    class       volScalarField;
    location    "4.5";
    object      epsilon;
}
// * * * * * * * * * * * * * * * * * * * * * * * * * * * * * * * * * * * * * //

dimensions      [0 2 -3 0 0 0 0];

internalField   nonuniform List<scalar> 
400055
(
0.00750071
0.00859265
0.0090379
0.00927191
0.00943182
0.0094761
0.00940398
0.00920302
0.00887324
0.00849036
0.00792322
0.00717058
0.00625852
0.00520407
0.004477
0.00551705
0.00652605
0.00739516
0.00809897
0.00863636
0.00905702
0.00939999
0.00960929
0.00968792
0.00963537
0.00945616
0.00917194
0.00863273
0.00765387
0.00493718
0.00622362
0.0292753
0.0277919
0.0286375
0.0290949
0.0289023
0.027972
0.00625411
0.00618765
0.00585826
0.00535174
0.00472038
0.00403347
0.00358916
0.00422225
0.00489119
0.00548495
0.0059219
0.0061055
0.0271192
0.0288501
0.0298052
0.0300447
0.0295487
0.0285877
0.0298927
0.00620363
0.00503094
0.00476275
0.00626832
0.0276567
0.0295464
0.0311808
0.0318932
0.0316599
0.0305299
0.0285965
0.027558
0.00613723
0.00566211
0.00504796
0.00437453
0.0039423
0.00454999
0.00520804
0.00578675
0.00619859
0.0268932
0.029463
0.0314668
0.0326356
0.0328981
0.032109
0.0302503
0.028251
0.0268918
0.00488401
0.00460945
0.00625399
0.0274933
0.0305652
0.0327152
0.0336107
0.0333357
0.0320476
0.0298956
0.0273586
0.00624052
0.00582339
0.00524954
0.00459551
0.00416992
0.00475684
0.00538882
0.00592615
0.0267508
0.0279335
0.0308344
0.0330314
0.0343568
0.0346459
0.0336784
0.0313453
0.0281297
0.0268372
0.00470897
0.00446061
0.00621637
0.0274296
0.0310976
0.033559
0.034564
0.0342548
0.0328595
0.0305698
0.0275788
0.0265597
0.00590297
0.00537056
0.00473704
0.00431695
0.00488595
0.00548581
0.00595943
0.00623607
0.0284362
0.0315536
0.0338711
0.0352918
0.0355968
0.0345161
0.0318897
0.0280266
0.00625908
0.0045392
0.00432444
0.00616366
0.0273347
0.0313274
0.0339405
0.0349822
0.0346382
0.0331788
0.0308156
0.0276505
0.0265866
0.00593418
0.005438
0.00482393
0.00440997
0.00496514
0.00554206
0.00598013
0.00622036
0.0285905
0.0318195
0.0341984
0.0356701
0.0359934
0.0348696
0.0320985
0.0278766
0.00618241
0.00438998
0.00419958
0.0061123
0.0272346
0.0313814
0.0340252
0.0350417
0.0346568
0.0331623
0.0307695
0.027524
0.00626317
0.00593552
0.0054689
0.00487256
0.00446567
0.00500797
0.00556549
0.0059796
0.0061967
0.0284999
0.0317747
0.0341744
0.0356703
0.0360226
0.0349195
0.0321247
0.0277508
0.00612643
0.00426347
0.00409131
0.0060662
0.0271636
0.0313482
0.033935
0.0348773
0.034441
0.032926
0.0305215
0.0272403
0.00621968
0.00591619
0.00547439
0.00489446
0.00449608
0.00502624
0.00556799
0.00596486
0.00616944
0.0282303
0.0315224
0.0339204
0.0354288
0.0358252
0.0347949
0.0320668
0.0276788
0.00608978
0.00415601
0.00399982
0.00603052
0.0271529
0.0312944
0.0337619
0.0345916
0.0340897
0.0325561
0.0301459
0.0268486
0.00617021
0.00588428
0.00546271
0.00489824
0.00451009
0.00502882
0.00556021
0.00595662
0.00622358
0.0278483
0.0311377
0.0335275
0.0350491
0.0355079
0.0345915
0.0319929
0.0276764
0.00606773
0.00406629
0.00392663
0.00601018
0.0272341
0.0312768
0.0335803
0.0342652
0.0336791
0.0321177
0.0296632
0.0268383
0.00613415
0.00584855
0.00544075
0.00489087
0.0045145
0.00502065
0.00554113
0.00592833
0.00620738
0.0274193
0.0306742
0.0330651
0.0346111
0.0351542
0.0343861
0.0319613
0.0277678
0.00606038
0.00399538
0.00387499
0.00601162
0.0274447
0.0313506
0.0334548
0.0339644
0.0332701
0.0316625
0.0291765
0.0266696
0.00609643
0.00581061
0.00541345
0.00487831
0.00451535
0.00500665
0.00551499
0.00589077
0.00616605
0.0270153
0.0301792
0.0325879
0.0341788
0.0348326
0.0342452
0.032028
0.0279884
0.00607256
0.00394634
0.00384949
0.00604307
0.0278314
0.0315723
0.0334453
0.0337467
0.0329137
0.0312326
0.0286959
0.0264674
0.00606068
0.00577387
0.00538549
0.00486631
0.00451865
0.00499215
0.00548642
0.00585164
0.00612223
0.0266762
0.0296814
0.0321411
0.0338059
0.034603
0.0342302
0.0322507
0.0283877
0.00611321
0.0039236
0.00385422
0.0061126
0.0284441
0.0319994
0.0336094
0.0336645
0.0326547
0.0308648
0.0283007
0.00624406
0.0060289
0.00574127
0.00536156
0.00486089
0.00453102
0.00498332
0.00546072
0.00581673
0.00608623
0.0062629
0.0292396
0.031764
0.0335399
0.0345198
0.0343999
0.0326886
0.0290205
0.00618975
0.00393081
0.00388734
0.00621056
0.0293079
0.0326815
0.0340006
0.0337667
0.0325341
0.0305927
0.0280011
0.0062639
0.00601024
0.00571726
0.00534702
0.00486907
0.00456032
0.00498741
0.00544371
0.00579075
0.00606823
0.026503
0.0288921
0.0314926
0.0334239
0.0346334
0.034809
0.033391
0.0298994
0.0265468
0.00396467
0.00395295
0.0268026
0.0304491
0.0336657
0.034669
0.0340988
0.0325901
0.0304477
0.027795
0.00626259
0.00599934
0.00570509
0.00534808
0.00489945
0.00461625
0.00501324
0.00544186
0.00577557
0.00605552
0.0264976
0.0286719
0.0313602
0.0334982
0.0349906
0.0355069
0.0343968
0.0310111
0.0267813
0.00400531
0.00405543
0.026699
0.0318179
0.0349891
0.0356598
0.0347029
0.0328588
0.0304597
0.027699
0.00626056
0.00599826
0.00570903
0.00537254
0.00496294
0.00471113
0.00507196
0.00546336
0.00577484
0.00604109
0.0062307
0.0285964
0.0313982
0.0338002
0.0356351
0.0365411
0.0357517
0.0323471
0.0267655
0.00412469
0.00420097
0.0275375
0.0335608
0.0366997
0.0370146
0.0356174
0.0333742
0.0306583
0.0277331
0.00626523
0.00601021
0.00573493
0.00543047
0.0050733
0.00486014
0.0051775
0.00551916
0.00579792
0.00604473
0.00621603
0.0286533
0.031637
0.0343647
0.0366061
0.0379545
0.0375125
0.034118
0.0269425
0.00424418
0.00435461
0.0280919
0.0356734
0.0388249
0.0387676
0.0368769
0.0341683
0.0310721
0.0279296
0.00623741
0.00603072
0.00578947
0.00553445
0.00524663
0.00508032
0.00534586
0.0056221
0.00585392
0.0060784
0.0264676
0.0288601
0.0321063
0.0352244
0.0379383
0.0397795
0.0396931
0.0362313
0.0277982
0.00441847
0.00456301
0.0292561
0.0381626
0.0413954
0.0409503
0.0385132
0.0352718
0.0317304
0.0283013
0.00623841
0.00607303
0.00588249
0.0056975
0.00549625
0.00538599
0.00559089
0.0057839
0.00594951
0.00613293
0.0268163
0.0292758
0.0328369
0.0364108
0.0396647
0.0420527
0.0423462
0.0388059
0.0293078
0.00464256
0.00481869
0.0310721
0.0411224
0.0444497
0.0435941
0.040557
0.0367157
0.0326647
0.0288823
0.0264628
0.00614427
0.00602142
0.00591542
0.00580517
0.00577548
0.00590869
0.00599582
0.00608334
0.00620814
0.0269722
0.0299448
0.0338606
0.0379544
0.0418158
0.0448054
0.0455071
0.0418864
0.0313895
0.00490998
0.00511356
0.0334761
0.044601
0.0480243
0.0467306
0.0430397
0.0385322
0.0339094
0.0297107
0.0268009
0.0062326
0.00619075
0.00609858
0.00604647
0.00619146
0.00619956
0.00615073
0.00618264
0.0266713
0.0274876
0.0308676
0.0352112
0.0398872
0.0444223
0.0480681
0.0492063
0.0454969
0.0339897
0.00521424
0.00544223
0.0364274
0.048628
0.0521529
0.050393
0.045995
0.0407568
0.0355024
0.0308277
0.0275268
0.00626839
0.0062611
0.0264815
0.0265134
0.0274205
0.0273355
0.02668
0.0265339
0.0269378
0.0283614
0.0320894
0.0369262
0.042244
0.047517
0.0518724
0.0534742
0.0496592
0.0370955
0.00554961
0.00580028
0.0399342
0.053231
0.0568702
0.0546175
0.0494606
0.0434295
0.0374861
0.0322776
0.0286285
0.0272423
0.0273712
0.028036
0.0285103
0.0293853
0.0291467
0.0282118
0.0276646
0.0278189
0.0296096
0.0336597
0.0390485
0.0450647
0.0511373
0.0562536
0.0583442
0.054402
0.0407343
0.00589562
0.00614911
0.0440127
0.0584365
0.0622132
0.0594454
0.0534808
0.0465972
0.0399107
0.0341143
0.0301393
0.0285744
0.0289042
0.0300933
0.0310582
0.0319375
0.0315316
0.0303083
0.0293301
0.0292758
0.0312832
0.0356386
0.0416299
0.0483971
0.0553273
0.0612529
0.0638534
0.0597536
0.0448632
0.00602341
0.00612593
0.0487
0.0642703
0.0682227
0.0649255
0.0581081
0.0503162
0.0428366
0.0364069
0.0321251
0.0304735
0.0310586
0.0327594
0.0342385
0.035193
0.0346139
0.0330541
0.0316212
0.0313442
0.0334573
0.0381096
0.044733
0.052299
0.060141
0.0669198
0.0700446
0.0657563
0.0497233
0.00610704
0.00621639
0.0537084
0.0707478
0.0749458
0.0711162
0.0634064
0.0546544
0.046337
0.0392524
0.034677
0.0330208
0.0339253
0.0361536
0.0381601
0.0392571
0.0385043
0.0365602
0.0346471
0.034101
0.0362281
0.0411815
0.0484345
0.0568411
0.065644
0.0733136
0.0769613
0.0724001
0.0548455
0.00625388
0.0270509
0.0590386
0.0778979
0.0824394
0.0780876
0.0694525
0.0596942
0.0505009
0.0427716
0.0379067
0.036324
0.0376123
0.0403951
0.0429352
0.0442241
0.0433021
0.0409421
0.0385248
0.0376485
0.039705
0.0449459
0.0528267
0.0621088
0.0719161
0.0805062
0.0846612
0.0797233
0.0602444
0.0274736
0.0282755
0.0647551
0.0857729
0.0907742
0.0859233
0.0763381
0.0655341
0.0554343
0.0470703
0.0419385
0.0405065
0.0422379
0.0455986
0.0486701
0.0501801
0.0490979
0.0463115
0.0433733
0.042106
0.0440127
0.049517
0.0580197
0.0682046
0.0790523
0.0885833
0.0932154
0.0877754
0.0660248
0.0288087
0.0297851
0.0709567
0.0944432
0.100035
0.0947218
0.0841711
0.0722902
0.0612624
0.0522777
0.0469099
0.0457008
0.0479233
0.0518733
0.0554625
0.0572049
0.0559766
0.0527734
0.0493109
0.0476021
0.049289
0.0550292
0.0641421
0.0752487
0.0871642
0.0976462
0.102713
0.0966359
0.0723113
0.0303947
0.0315744
0.0777325
0.103991
0.110322
0.104596
0.0930765
0.0800977
0.0681299
0.0585435
0.0529696
0.0520446
0.0547901
0.059323
0.0634033
0.065375
0.0640196
0.0604275
0.0564544
0.0542717
0.0556832
0.0616352
0.071342
0.0833799
0.0963798
0.107811
0.113256
0.106392
0.0792014
0.0322434
0.0336307
0.0851581
0.114504
0.121742
0.115674
0.103196
0.089111
0.0762012
0.0660354
0.0602772
0.0596794
0.0629589
0.0680489
0.0725804
0.0747677
0.0733084
0.069371
0.0649196
0.0622537
0.063354
0.0695045
0.0797858
0.0927553
0.106844
0.119208
0.124957
0.117135
0.086771
0.0343511
0.0359407
0.0932996
0.126079
0.134418
0.128097
0.114689
0.0995028
0.0856591
0.0749377
0.0690015
0.0687508
0.0725514
0.0781533
0.0830838
0.0854652
0.0839294
0.0797023
0.0748235
0.0716909
0.0724699
0.0788211
0.0896572
0.103549
0.118718
0.131981
0.137938
0.12896
0.0950828
0.0367092
0.0384951
0.102219
0.138812
0.148476
0.142019
0.12773
0.111463
0.0967029
0.0854482
0.0793212
0.0794092
0.0836924
0.0897428
0.0950102
0.097559
0.095977
0.0915252
0.0862868
0.0827317
0.0832105
0.0897814
0.101155
0.115953
0.132178
0.146285
0.152331
0.141966
0.104193
0.0393102
0.04129
0.111974
0.152805
0.164055
0.157605
0.142507
0.125197
0.109546
0.097776
0.0914276
0.091812
0.0965131
0.102932
0.108467
0.111153
0.109557
0.104952
0.0994374
0.0955326
0.095772
0.102591
0.11449
0.130171
0.147412
0.162286
0.168271
0.156253
0.114157
0.0421516
0.0443269
0.122626
0.168162
0.181295
0.175031
0.159219
0.14092
0.124411
0.112138
0.105527
0.106125
0.111153
0.117848
0.123574
0.126368
0.12479
0.120107
0.114412
0.11026
0.110398
0.117465
0.129885
0.146419
0.16462
0.18016
0.1859
0.171925
0.125029
0.0452373
0.0476105
0.134231
0.184989
0.200345
0.194478
0.178076
0.158859
0.141529
0.128755
0.12188
0.122523
0.127761
0.134629
0.140469
0.143337
0.141812
0.13713
0.13136
0.127083
0.127284
0.134619
0.147567
0.164922
0.184009
0.200086
0.205364
0.189084
0.136862
0.0485758
0.0511476
0.146849
0.203392
0.221353
0.216131
0.19929
0.179243
0.161131
0.14785
0.140687
0.141186
0.1465
0.15343
0.159304
0.162217
0.160776
0.156175
0.150442
0.146176
0.14662
0.154274
0.167766
0.185904
0.205789
0.222247
0.226806
0.207829
0.14971
0.0521776
0.054946
0.160535
0.223471
0.244466
0.240176
0.223075
0.202301
0.183449
0.169643
0.162136
0.162298
0.167543
0.174422
0.180251
0.183177
0.181854
0.177412
0.171831
0.167725
0.168603
0.176651
0.190711
0.209594
0.230171
0.246826
0.250371
0.228261
0.163624
0.0560521
0.0590148
0.175343
0.245327
0.269827
0.266795
0.249642
0.228257
0.208707
0.194349
0.186426
0.186052
0.191078
0.197789
0.203498
0.20641
0.205236
0.20103
0.195718
0.191927
0.193437
0.201964
0.216624
0.236211
0.257361
0.274001
0.276201
0.250477
0.178657
0.0602073
0.0633644
0.191323
0.269048
0.297568
0.29616
0.279188
0.257326
0.237121
0.222178
0.213756
0.212656
0.217306
0.223735
0.229251
0.232123
0.231128
0.227231
0.222306
0.219002
0.221327
0.230423
0.245718
0.265964
0.287554
0.303942
0.304428
0.274569
0.19486
0.0646489
0.0680054
0.208515
0.294713
0.327809
0.328427
0.3119
0.289703
0.26889
0.253327
0.244323
0.242339
0.246442
0.252477
0.257733
0.260543
0.259752
0.256235
0.251813
0.24917
0.252473
0.262226
0.27819
0.299047
0.32093
0.336804
0.335171
0.30062
0.212282
0.0693817
0.0729471
0.226955
0.322386
0.360651
0.363731
0.347937
0.325567
0.304197
0.287982
0.278319
0.27531
0.278711
0.284247
0.289183
0.291911
0.291348
0.288273
0.284469
0.282717
0.287064
0.297555
0.314217
0.335629
0.357646
0.372719
0.368532
0.328699
0.230963
0.0744103
0.0781982
0.246666
0.352112
0.396171
0.402182
0.387433
0.365064
0.343198
0.326307
0.31592
0.311952
0.314352
0.319289
0.323853
0.32648
0.326166
0.32359
0.320514
0.319933
0.325276
0.336571
0.35395
0.375853
0.39783
0.411794
0.404588
0.358853
0.250929
0.0797413
0.0837658
0.267659
0.383917
0.434417
0.443855
0.430485
0.408309
0.386022
0.368445
0.357288
0.352408
0.353626
0.357859
0.362006
0.36452
0.36447
0.362442
0.360204
0.360946
0.367267
0.379411
0.397509
0.419827
0.441575
0.454101
0.443386
0.391105
0.272196
0.0853836
0.0896559
0.289933
0.417799
0.475405
0.488785
0.477151
0.455379
0.432761
0.414513
0.402562
0.396808
0.396744
0.400224
0.403914
0.406307
0.406532
0.405101
0.403735
0.40589
0.413169
0.426181
0.444981
0.46762
0.488934
0.499674
0.484935
0.425446
0.294759
0.091346
0.095872
0.313466
0.453728
0.51911
0.536964
0.527443
0.506304
0.483472
0.46459
0.451851
0.445271
0.444033
0.446651
0.449877
0.452142
0.452655
0.451823
0.451557
0.454887
0.463083
0.476951
0.496409
0.519257
0.539911
0.548495
0.529202
0.461839
0.318596
0.0976337
0.102415
0.338222
0.491638
0.565461
0.588332
0.581316
0.561066
0.538161
0.518718
0.505233
0.497893
0.495766
0.497322
0.500137
0.502293
0.503068
0.50286
0.503757
0.508027
0.517074
0.531751
0.551793
0.574711
0.594458
0.600494
0.576106
0.500206
0.34366
0.104246
0.109281
0.364136
0.531426
0.614339
0.642772
0.638671
0.619587
0.596785
0.576889
0.562739
0.554733
0.551939
0.552784
0.554961
0.55693
0.558114
0.558654
0.560349
0.565364
0.575163
0.59056
0.611079
0.633898
0.652464
0.655542
0.625516
0.540432
0.369883
0.111175
0.116463
0.39112
0.572942
0.665568
0.700101
0.699338
0.681727
0.659237
0.639038
0.624346
0.615804
0.612543
0.612968
0.614798
0.616672
0.618121
0.61912
0.621335
0.626903
0.637316
0.653304
0.674152
0.69667
0.713751
0.713447
0.677245
0.582357
0.397169
0.11841
0.123949
0.419058
0.615992
0.718907
0.760068
0.763076
0.74727
0.72534
0.705032
0.689968
0.68106
0.677536
0.677787
0.67949
0.681345
0.682945
0.684178
0.686672
0.692592
0.703439
0.719843
0.74083
0.762805
0.778071
0.77395
0.731044
0.625776
0.425401
0.12594
0.131721
0.4478
0.660328
0.774053
0.822345
0.829562
0.81592
0.794837
0.774659
0.759441
0.750379
0.746818
0.747122
0.748886
0.750786
0.752442
0.753715
0.756258
0.762301
0.77336
0.789958
0.81085
0.832002
0.845094
0.836716
0.786604
0.670438
0.454428
0.133752
0.139755
0.477169
0.705652
0.830632
0.886523
0.898386
0.88729
0.86738
0.84762
0.832513
0.823556
0.820207
0.820795
0.822793
0.824794
0.82642
0.827551
0.82991
0.835816
0.84682
0.863345
0.883862
0.903869
0.914407
0.901332
0.843549
0.716045
0.484067
0.141831
0.148022
0.506957
0.751616
0.888202
0.95211
0.969048
0.960897
0.942522
0.923512
0.908832
0.90028
0.897425
0.898534
0.900932
0.903089
0.904607
0.905418
0.907345
0.912824
0.923466
0.939603
0.959414
0.977919
0.985505
0.967306
0.90144
0.762253
0.514101
0.150155
0.156484
0.536927
0.797821
0.946252
1.01853
1.04095
1.03616
1.01971
1.00183
0.987931
0.980126
0.978072
0.979955
0.982921
0.985289
0.986624
0.986935
0.988165
0.992898
1.00283
1.01822
1.03695
1.05356
1.05779
1.03406
0.959773
0.808667
0.544285
0.158697
0.165102
0.566819
0.843824
1.00421
1.08514
1.11341
1.11239
1.09829
1.08193
1.06922
1.06254
1.06162
1.06454
1.06825
1.07088
1.07197
1.07159
1.07184
1.07549
1.08433
1.09856
1.11581
1.13011
1.13056
1.10095
1.01798
0.854854
0.574351
0.167416
0.17383
0.596348
0.889143
1.06144
1.1512
1.18565
1.18879
1.17747
1.16309
1.15199
1.14683
1.1474
1.15163
1.15625
1.15922
1.15997
1.15872
1.15771
1.1599
1.16724
1.17989
1.1952
1.20675
1.20304
1.16725
1.07542
0.900336
0.604012
0.176261
0.182618
0.625207
0.933256
1.11727
1.21593
1.25681
1.2645
1.25638
1.24441
1.23538
1.23217
1.23459
1.2404
1.2461
1.24947
1.24983
1.24752
1.24495
1.24531
1.25072
1.26133
1.27424
1.28261
1.27437
1.23215
1.13142
0.944594
0.632962
0.185173
0.191411
0.653073
0.975614
1.17097
1.27846
1.32595
1.33852
1.33403
1.32494
1.31842
1.31759
1.32222
1.32988
1.33684
1.34065
1.34055
1.33699
1.33259
1.33075
1.33379
1.34188
1.35193
1.35669
1.3436
1.29479
1.18525
0.987074
0.66088
0.194086
0.200149
0.679604
1.01564
1.22177
1.3379
1.3921
1.40981
1.40933
1.40355
1.40001
1.40198
1.40917
1.41892
1.42728
1.43159
1.43097
1.426
1.41949
1.4151
1.41535
1.42046
1.42718
1.42793
1.40974
1.35427
1.23613
1.02719
0.68743
0.202935
0.208768
0.704453
1.05277
1.26892
1.39334
1.45421
1.47727
1.48113
1.47908
1.47894
1.4841
1.49416
1.50624
1.51613
1.52096
1.51977
1.51325
1.5044
1.49713
1.49418
1.49587
1.49883
1.49523
1.47173
1.40966
1.28329
1.06436
0.712263
0.211651
0.217198
0.727268
1.0864
1.31163
1.44383
1.51121
1.53972
1.54821
1.55026
1.55392
1.56261
1.57582
1.5904
1.60191
1.6073
1.60548
1.59729
1.58591
1.57548
1.56898
1.56684
1.56566
1.55742
1.52851
1.46001
1.32593
1.09797
0.735026
0.220165
0.225365
0.747707
1.11598
1.34915
1.48844
1.56206
1.59602
1.60932
1.61578
1.62356
1.63608
1.65265
1.66985
1.68305
1.689
1.68653
1.67659
1.66252
1.6487
1.63835
1.63205
1.62641
1.61334
1.57902
1.50438
1.3633
1.12745
0.755369
0.228404
0.233191
0.765441
1.14097
1.38077
1.52631
1.60571
1.645
1.66322
1.6743
1.68645
1.70302
1.72308
1.74297
1.75787
1.76438
1.76125
1.74951
1.73267
1.71529
1.70086
1.69016
1.67985
1.66184
1.62223
1.54189
1.39466
1.15226
0.772965
0.236289
0.240598
0.780171
1.1609
1.40582
1.55659
1.6412
1.68557
1.70869
1.7245
1.74117
1.7619
1.78551
1.8081
1.82469
1.83175
1.82794
1.8144
1.79474
1.77373
1.75509
1.73983
1.72476
1.70184
1.65718
1.57173
1.41936
1.17193
0.787514
0.243737
0.247504
0.791632
1.17535
1.42375
1.57858
1.66766
1.71672
1.74458
1.76508
1.78628
1.81118
1.83834
1.86359
1.88181
1.88939
1.88492
1.8696
1.84715
1.82247
1.79959
1.77977
1.75999
1.73232
1.68301
1.59316
1.43684
1.18605
0.798758
0.250662
0.253831
0.799602
1.18398
1.43408
1.59167
1.68434
1.73753
1.76982
1.79548
1.82206
1.85062
1.88005
1.90781
1.92759
1.93567
1.93056
1.91352
1.88836
1.86098
1.83431
1.80908
1.7845
1.75241
1.699
1.60562
1.44664
1.19429
0.806486
0.256979
0.2595
0.803912
1.18654
1.43647
1.5954
1.69066
1.74733
1.78555
1.81794
1.84918
1.88103
1.91244
1.9407
1.9606
1.96908
1.9634
1.94591
1.91996
1.89053
1.86045
1.83052
1.79908
1.76143
1.70457
1.60866
1.44844
1.19643
0.810543
0.262608
0.264435
0.804442
1.18289
1.43074
1.58952
1.6863
1.74801
1.79352
1.83125
1.86646
1.90121
1.9345
1.96347
1.98358
1.99178
1.98609
1.96822
1.94132
1.9099
1.87679
1.84287
1.80603
1.761
1.69942
1.60204
1.44208
1.19233
0.810823
0.267474
0.268563
0.801131
1.173
1.41685
1.57398
1.67276
1.74174
1.79263
1.83453
1.87302
1.91024
1.94517
1.97488
1.99525
2.00332
1.99752
1.9792
1.95136
1.91815
1.88246
1.84521
1.80417
1.75373
1.68483
1.58573
1.42751
1.18197
0.807269
0.27151
0.271812
0.79397
1.15692
1.39492
1.54925
1.65381
1.72748
1.78212
1.82717
1.86826
1.90747
1.94371
1.97406
1.99465
2.00264
1.99669
1.97797
1.94931
1.91464
1.87685
1.83695
1.79274
1.73854
1.66494
1.56019
1.4049
1.16541
0.79987
0.274651
0.274112
0.783
1.13482
1.36535
1.52035
1.62832
1.70457
1.76157
1.80881
1.85181
1.89249
1.92968
1.96045
1.98113
1.98905
1.98297
1.96396
1.93472
1.89896
1.8596
1.81772
1.7713
1.71475
1.63857
1.53036
1.37464
1.14283
0.788664
0.276838
0.275396
0.768311
1.10703
1.33059
1.4869
1.59564
1.67269
1.7308
1.77932
1.82353
1.86512
1.90284
1.93374
1.95437
1.96215
1.95599
1.93686
1.90734
1.87093
1.83055
1.78738
1.73966
1.68202
1.60505
1.49607
1.3391
1.11455
0.773735
0.278009
0.275594
0.750044
1.07414
1.29358
1.44814
1.55545
1.63175
1.68983
1.73876
1.78347
1.82539
1.86317
1.89389
1.91426
1.92185
1.91567
1.89663
1.86716
1.83057
1.78974
1.74599
1.69783
1.64023
1.56406
1.45653
1.30139
1.08116
0.755215
0.278099
0.274686
0.72841
1.03869
1.25329
1.40364
1.50767
1.58184
1.63883
1.68732
1.73184
1.77351
1.81088
1.84104
1.86091
1.86825
1.86212
1.8434
1.81436
1.77808
1.7374
1.69376
1.64599
1.58949
1.51549
1.41131
1.26046
1.04514
0.733304
0.277065
0.273215
0.703869
1.00193
1.20917
1.35323
1.45237
1.52317
1.57811
1.62536
1.669
1.70983
1.74627
1.7755
1.79464
1.80163
1.79564
1.77748
1.74925
1.71379
1.67386
1.63102
1.58445
1.53001
1.45943
1.36021
1.21575
1.00786
0.708427
0.275469
0.271069
0.67865
0.963163
1.1609
1.29691
1.38975
1.45608
1.50806
1.5533
1.59538
1.63478
1.66979
1.69769
1.71586
1.72242
1.71666
1.69932
1.67229
1.63816
1.59957
1.5582
1.5136
1.46214
1.39607
1.30322
1.16692
0.96862
0.682882
0.273211
0.268139
0.652321
0.921917
1.10832
1.23475
1.32006
1.38093
1.42911
1.47163
1.51152
1.5489
1.58196
1.60814
1.62508
1.63113
1.62571
1.60944
1.58401
1.55171
1.51504
1.47581
1.4339
1.38623
1.32568
1.24043
1.11381
0.926932
0.656241
0.270171
0.264305
0.624551
0.877892
1.05137
1.16688
1.24359
1.2981
1.34174
1.38086
1.41793
1.45274
1.48336
1.50743
1.52287
1.52832
1.52335
1.50843
1.48498
1.455
1.42082
1.38435
1.34581
1.30269
1.24854
1.17197
1.05635
0.882492
0.628173
0.266231
0.259442
0.59508
0.830876
0.99003
1.09348
1.16063
1.208
1.24639
1.28151
1.31519
1.34687
1.37457
1.39614
1.40982
1.41457
1.41016
1.39687
1.3758
1.34862
1.31748
1.28434
1.24979
1.21193
1.16495
1.098
0.994533
0.835086
0.598418
0.261258
0.253402
0.563676
0.780698
0.924299
1.01468
1.07145
1.11099
1.14354
1.17408
1.20384
1.23188
1.25619
1.27486
1.28647
1.2904
1.28671
1.27536
1.25706
1.23316
1.20558
1.17632
1.14632
1.11431
1.0752
1.01868
0.928352
0.784538
0.566747
0.255108
0.24602
0.530116
0.727194
0.854159
0.930623
0.976336
1.00745
1.03362
1.0591
1.08446
1.10838
1.12882
1.14417
1.15335
1.15631
1.15352
1.14448
1.12939
1.10924
1.08569
1.0608
1.03585
1.01022
0.979556
0.934146
0.857788
0.730681
0.532933
0.247612
0.237094
0.494147
0.670167
0.77957
0.841455
0.875574
0.897795
0.917148
0.937144
0.957671
0.977036
0.993153
1.0047
1.01098
1.01269
1.0111
1.00485
0.993452
0.977518
0.958459
0.938352
0.91888
0.900071
0.878319
0.844539
0.782804
0.673319
0.496721
0.238569
0.226378
0.455461
0.609374
0.700484
0.747367
0.769566
0.782558
0.794751
0.808924
0.824286
0.838723
0.85004
0.857222
0.859861
0.859889
0.859984
0.857245
0.850107
0.838873
0.824683
0.809712
0.796055
0.784407
0.771897
0.750058
0.703353
0.612206
0.457799
0.227734
0.213552
0.413643
0.544499
0.616895
0.64874
0.659011
0.662631
0.667428
0.67553
0.685491
0.694715
0.700776
0.702871
0.700672
0.698197
0.700871
0.702806
0.700652
0.694585
0.685562
0.675975
0.668384
0.664134
0.661002
0.651093
0.619433
0.54703
0.415747
0.214787
0.198181
0.368138
0.475201
0.529011
0.546468
0.54538
0.539801
0.537086
0.538928
0.54335
0.547218
0.547671
0.54377
0.534508
0.527831
0.534937
0.543682
0.547406
0.546877
0.543188
0.539135
0.537802
0.54106
0.547113
0.548545
0.531258
0.477449
0.370004
0.199296
0.179606
0.318085
0.401063
0.437416
0.442393
0.431673
0.417812
0.407729
0.403123
0.401883
0.400419
0.395227
0.384465
0.364024
0.349844
0.364937
0.384462
0.394896
0.399977
0.401631
0.403255
0.408365
0.41896
0.433247
0.444257
0.43941
0.403042
0.319699
0.180605
0.156812
0.262323
0.321849
0.34359
0.340148
0.323801
0.304492
0.288284
0.277304
0.270127
0.263472
0.253374
0.235729
0.187351
0.152963
0.189222
0.235942
0.253114
0.263147
0.270041
0.277608
0.289035
0.305659
0.325291
0.34184
0.345354
0.323553
0.263661
0.1577
0.127509
0.197441
0.235105
0.246835
0.241143
0.225815
0.20713
0.189291
0.174345
0.160053
0.147051
0.132559
0.110202
0.089736
0.075851
0.0878068
0.110945
0.132714
0.147172
0.160415
0.174984
0.190215
0.208303
0.227177
0.242611
0.248308
0.236457
0.198463
0.128278
0.104017
0.140259
0.15948
0.164562
0.159537
0.148136
0.133392
0.117576
0.102049
0.0899576
0.0814295
0.0739649
0.063864
0.0690925
0.0628271
0.0138779
0.0642719
0.0744683
0.0819857
0.0906464
0.102906
0.118573
0.134511
0.149344
0.160783
0.165772
0.160574
0.141157
0.104744
0.00895912
0.0100099
0.0106913
0.0111286
0.0113589
0.0114082
0.0112954
0.011001
0.0105094
0.00983016
0.00894069
0.00785369
0.0066453
0.00541346
0.0046805
0.0057533
0.00698981
0.00815335
0.00918993
0.0100435
0.010713
0.0111996
0.0115111
0.0116506
0.0115973
0.0113332
0.0108714
0.0101835
0.0091154
0.0147654
0.0145672
0.0165504
0.0170435
0.0172684
0.0170583
0.0164556
0.0155025
0.0137879
0.0119273
0.0101231
0.00842623
0.00687372
0.00590649
0.00557602
0.00607136
0.00727088
0.00885163
0.0106617
0.0127356
0.0146935
0.0159402
0.0169397
0.0175576
0.0177554
0.0175182
0.017043
0.0151486
0.0152082
0.0133511
0.0149017
0.0174739
0.0186206
0.019108
0.0189821
0.0183116
0.0171852
0.015648
0.0139367
0.0110444
0.00898097
0.00728896
0.00633093
0.00604191
0.00647612
0.00769662
0.00944226
0.0116085
0.0143982
0.0162228
0.0177132
0.0188724
0.0195475
0.0196624
0.0191654
0.0180724
0.0162953
0.0138028
0.0121135
0.014097
0.0171675
0.0186264
0.0192826
0.0192368
0.0185971
0.0174831
0.016008
0.0142669
0.011361
0.00922404
0.00751723
0.0065279
0.00620418
0.00668897
0.00794382
0.0098435
0.0127277
0.0147962
0.0165294
0.018014
0.0191525
0.0197963
0.019834
0.019171
0.0177723
0.015633
0.0125278
0.0111338
0.0132794
0.0166525
0.0182494
0.0189557
0.0189315
0.0183231
0.0172668
0.0158878
0.0142691
0.0122189
0.00943614
0.00763782
0.00658739
0.00620534
0.00676689
0.00803353
0.00989171
0.0123735
0.0147614
0.0163828
0.0177794
0.0188537
0.0194665
0.0194866
0.0187722
0.0171923
0.0140484
0.0115026
0.0104081
0.0127028
0.0162345
0.0178313
0.0184762
0.018406
0.0178045
0.0168132
0.0155477
0.0140658
0.012249
0.00941861
0.00764175
0.00655139
0.00611612
0.00674805
0.00801305
0.00981212
0.0121845
0.0145321
0.0160211
0.0173038
0.0183093
0.018916
0.0189844
0.0183297
0.0167256
0.0132435
0.0107439
0.00990492
0.0123862
0.0159918
0.0175031
0.0180117
0.0178454
0.0172238
0.0162865
0.0151291
0.0137594
0.0112675
0.0091379
0.00754314
0.00645134
0.00597855
0.00666553
0.00792076
0.0096396
0.0119637
0.014221
0.0155851
0.0167585
0.0177083
0.0183361
0.0185022
0.0179833
0.0164529
0.0128362
0.0102217
0.00959685
0.0122908
0.0159242
0.017302
0.0176307
0.0173352
0.0166698
0.0157687
0.0147024
0.0134247
0.0107538
0.00885328
0.00739596
0.0063139
0.005818
0.00654014
0.00777467
0.00940664
0.0116736
0.0138832
0.0151447
0.0162267
0.0171406
0.0178135
0.0181103
0.0177718
0.0163701
0.0127011
0.0099047
0.0094692
0.0123809
0.0160151
0.0172336
0.0173593
0.0169139
0.0161847
0.015299
0.0143007
0.0130966
0.0103688
0.00858511
0.00722543
0.00615749
0.00565069
0.00638801
0.00758347
0.00907823
0.0110627
0.0135404
0.0147333
0.0157475
0.0166475
0.0173864
0.017835
0.0177008
0.0164573
0.0127757
0.00977568
0.00952091
0.0126374
0.0162541
0.0172971
0.0172071
0.0165974
0.0157863
0.0148945
0.0139378
0.0128377
0.010051
0.00833425
0.0070451
0.00599498
0.00548759
0.00622402
0.00737449
0.00875318
0.0105758
0.0132256
0.0143657
0.0153375
0.0162462
0.0170698
0.0176856
0.0177692
0.0167018
0.0130309
0.00983172
0.00976083
0.0130572
0.0166421
0.0174952
0.0171794
0.0163924
0.0154814
0.014561
0.0136206
0.0126227
0.00977102
0.0080991
0.00686401
0.0058361
0.00533681
0.00606025
0.00716616
0.00846236
0.0102081
0.0130075
0.0140489
0.0150024
0.0159427
0.01687
0.0176669
0.0179791
0.0171027
0.013458
0.0100803
0.0102015
0.0136466
0.01719
0.017837
0.0172825
0.016303
0.0152725
0.0143004
0.0133509
0.0123848
0.00950675
0.00787789
0.00668897
0.00568888
0.00520532
0.00590677
0.00697092
0.00821008
0.0099164
0.0128038
0.0137833
0.0147441
0.0157397
0.0167911
0.017785
0.018339
0.01767
0.0140613
0.0105331
0.0108515
0.0144184
0.0179169
0.0183377
0.0175266
0.0163348
0.0151622
0.0141142
0.0131399
0.01156
0.00918321
0.00766353
0.00652572
0.00556105
0.00510023
0.00577209
0.00679465
0.00798517
0.00960915
0.0120778
0.013568
0.0145643
0.0156401
0.0168388
0.0180501
0.0188654
0.0184305
0.014897
0.0111988
0.0117093
0.015457
0.0188595
0.0190187
0.0179252
0.016496
0.0151549
0.0140056
0.013009
0.010814
0.00884141
0.00745957
0.00638107
0.00546127
0.00503006
0.00566513
0.00664351
0.00779736
0.00942342
0.0123024
0.0134488
0.0144666
0.0156489
0.0170217
0.0184764
0.0195845
0.0194724
0.0167547
0.0120771
0.0127751
0.0175089
0.0200898
0.0199034
0.0184933
0.0167967
0.0152575
0.0139785
0.0129351
0.0103384
0.00854911
0.00728043
0.00626456
0.00540036
0.00500581
0.00559674
0.00652467
0.00764433
0.00927042
0.0122817
0.013397
0.014456
0.0157733
0.0173503
0.0190785
0.0205095
0.0207383
0.0183846
0.0131598
0.0140447
0.0192996
0.0215505
0.0210033
0.0192453
0.0172485
0.0154783
0.0140388
0.0129173
0.0100519
0.0083289
0.00713995
0.00618829
0.00539215
0.00504149
0.00558058
0.00644664
0.00751975
0.00908293
0.0116422
0.0133956
0.0145386
0.0160225
0.0178367
0.0198701
0.0216508
0.0222208
0.020016
0.0144708
0.0155122
0.0211907
0.0232318
0.0223266
0.0201938
0.0178632
0.0158275
0.0141945
0.0129606
0.00991085
0.00818823
0.00705083
0.00616743
0.00545392
0.00515424
0.00563434
0.00642443
0.0074404
0.00895668
0.0114193
0.0134611
0.0147232
0.0164068
0.0184929
0.0208648
0.0230215
0.023938
0.0218676
0.0159776
0.0171564
0.0232278
0.0251423
0.0238814
0.0213502
0.0186527
0.0163158
0.0144553
0.013074
0.00995469
0.00814619
0.00702944
0.00622153
0.00560631
0.0053634
0.00577908
0.00647864
0.00743081
0.00896615
0.0119617
0.0136088
0.0150199
0.0169376
0.0193308
0.0220739
0.0246295
0.0258915
0.0239292
0.0176678
0.0189629
0.0254536
0.0272833
0.0256738