/*--------------------------------*- C++ -*----------------------------------*\
| =========                 |                                                 |
| \\      /  F ield         | OpenFOAM: The Open Source CFD Toolbox           |
|  \\    /   O peration     | Version:  5.x                                   |
|   \\  /    A nd           | Web:      www.OpenFOAM.org                      |
|    \\/     M anipulation  |                                                 |
\*---------------------------------------------------------------------------*/
/*   Windows 32 and 64 bit porting by blueCAPE: http://www.bluecape.com.pt   *\
|  Based on Windows porting (2.0.x v4) by Symscape: http://www.symscape.com   |
\*---------------------------------------------------------------------------*/
FoamFile
{
    version     2.0;
    format      ascii;
    class       volScalarField;
    location    "4.5";
    object      k;
}
// * * * * * * * * * * * * * * * * * * * * * * * * * * * * * * * * * * * * * //

dimensions      [0 2 -2 0 0 0 0];

internalField   nonuniform List<scalar> 
400055
(
0.00296048
0.00339677
0.00357941
0.0036748
0.00372786
0.00374265
0.0037133
0.00363534
0.00351147
0.00335658
0.00313532
0.00284174
0.00248227
0.00206661
0.00178415
0.0021927
0.00258744
0.00292638
0.00319884
0.00340297
0.00358061
0.00371511
0.00379673
0.00382714
0.00380662
0.00373864
0.00363914
0.00344731
0.00302447
0.00293609
0.0037129
0.00375188
0.00383787
0.00392957
0.00397139
0.00395411
0.00387283
0.0038557
0.00372289
0.0035089
0.00320161
0.00282215
0.00241326
0.00215198
0.00252478
0.0029185
0.00326993
0.00353465
0.00370579
0.0038011
0.00395459
0.00403949
0.00405955
0.00401258
0.00390832
0.00381002
0.00372605
0.00299726
0.00284657
0.00378633
0.00381431
0.0040101
0.00415794
0.00422156
0.00420261
0.00410518
0.0039525
0.00379198
0.00366689
0.00338746
0.00301804
0.00261737
0.00236369
0.0027204
0.00310683
0.0034457
0.0036803
0.00378958
0.00401525
0.00419096
0.00429145
0.00431251
0.00424441
0.00408954
0.00385601
0.00357134
0.00289985
0.00274574
0.00376888
0.00382721
0.00410275
0.0042925
0.00437221
0.00435111
0.00424175
0.004058
0.00382457
0.00372429
0.00348156
0.00313758
0.00274937
0.00250003
0.00284402
0.00321464
0.00351988
0.00367986
0.0038771
0.0041396
0.00432994
0.00444147
0.00446265
0.0043766
0.00417665
0.0038697
0.00353109
0.00279435
0.00265442
0.00372504
0.00381993
0.00414854
0.00436559
0.00445527
0.0044322
0.0043148
0.00411734
0.00384907
0.00366303
0.00350684
0.00320448
0.00283284
0.0025875
0.00292089
0.00327619
0.00356125
0.00374716
0.00392937
0.00420499
0.00440435
0.00452272
0.00454426
0.00444754
0.00421969
0.00387232
0.00364479
0.00269831
0.00257249
0.0036794
0.00380703
0.00416752
0.00439863
0.00449201
0.00446651
0.00434413
0.00414004
0.00385588
0.00365252
0.0035156
0.00324128
0.00288365
0.00264209
0.00296607
0.00330474
0.00356319
0.00375323
0.00394655
0.0042298
0.00443387
0.00455602
0.0045787
0.00447789
0.00423562
0.00385968
0.0036596
0.00261116
0.00249725
0.0036405
0.00379468
0.00417151
0.00440622
0.0044979
0.00446913
0.00434377
0.00413682
0.00384585
0.00370614
0.00352825
0.0032609
0.00291216
0.00267427
0.0029907
0.00331684
0.00355615
0.00373439
0.0039398
0.00422691
0.00443277
0.00455692
0.00458197
0.00448261
0.00423664
0.00384517
0.00364397
0.00253349
0.00242991
0.00360926
0.0037862
0.00416825
0.0043988
0.00448449
0.00445132
0.00432391
0.00411555
0.00382071
0.00370274
0.00352489
0.00326574
0.00292468
0.00269099
0.00300083
0.00331768
0.00354359
0.00370573
0.00391616
0.00420542
0.00441156
0.00453707
0.00456597
0.00447256
0.004231
0.00383508
0.00362311
0.00246654
0.00237321
0.00358527
0.0037841
0.00416342
0.00438421
0.00446047
0.00442153
0.00429202
0.00408259
0.0037844
0.00368038
0.00350953
0.00325944
0.00292601
0.00269752
0.00300151
0.00331326
0.00353883
0.00371185
0.00387892
0.0041719
0.00437802
0.00450518
0.00453966
0.00445584
0.00422456
0.00383252
0.00360673
0.00241051
0.00232778
0.00357112
0.00379097
0.00416193
0.00436878
0.0044327
0.00438628
0.0042538
0.00404147
0.00375048
0.00365368
0.00348817
0.00324598
0.00292018
0.00269793
0.0029958
0.00330325
0.00352889
0.00370048
0.00383677
0.0041311
0.00433808
0.00446799
0.00451003
0.00443889
0.00422218
0.00383982
0.00359922
0.00236612
0.00229531
0.00357031
0.00381006
0.00416853
0.00435808
0.00440688
0.00435086
0.00421374
0.00399759
0.00372202
0.00362662
0.00346428
0.00322863
0.00291072
0.0026957
0.00298629
0.00328809
0.00351086
0.00367793
0.0037984
0.00408706
0.00429645
0.00443094
0.00448289
0.00442733
0.00422854
0.00385975
0.00360423
0.00233503
0.00227835
0.00358759
0.00384541
0.00418819
0.00435734
0.00438805
0.00431973
0.00417561
0.00395395
0.00369524
0.00360079
0.00344033
0.00321029
0.00290097
0.00269428
0.00297599
0.00327057
0.00348854
0.00365067
0.00376245
0.00404275
0.0042571
0.0043987
0.00446339
0.00442647
0.00424858
0.00389629
0.00362625
0.00231971
0.00227983
0.00362839
0.00390179
0.00422592
0.00437156
0.00438081
0.0042969
0.0041427
0.0039152
0.00370139
0.00358255
0.0034192
0.00319389
0.0028944
0.00269738
0.00296831
0.00325404
0.00346695
0.00362833
0.00375833
0.00400182
0.00422353
0.00437544
0.00445629
0.00444137
0.0042873
0.00395354
0.00366319
0.00232275
0.00230165
0.00368622
0.00398223
0.00428619
0.00440541
0.00438947
0.00428604
0.00411811
0.00388464
0.00372095
0.00357436
0.00340363
0.00318259
0.00289501
0.00270942
0.00296729
0.00324188
0.00344877
0.00360592
0.00371859
0.00396956
0.00419901
0.00436503
0.00446597
0.00447668
0.0043485
0.00402725
0.00362103
0.00234308
0.00234115
0.00366028
0.00407981
0.00437192
0.00446296
0.00441794
0.00429058
0.00410471
0.00386434
0.00372626
0.00356988
0.00339492
0.0031799
0.00290768
0.00273594
0.00297788
0.00323805
0.00343804
0.00359411
0.0036986
0.00394798
0.00418662
0.00437103
0.00449646
0.00453661
0.0044365
0.00412858
0.00364758
0.00238007
0.00238552
0.00365135
0.00420253
0.00448599
0.00454764
0.00446972
0.00431369
0.00410527
0.00385455
0.00372824
0.00356987
0.00339525
0.00319023
0.00293865
0.00278397
0.00300639
0.00324692
0.00343615
0.00359021
0.00370692
0.0039387
0.00418928
0.00439671
0.00455126
0.00462447
0.0045535
0.00425558
0.00365928
0.00242339
0.00246106
0.00370711
0.00435327
0.00463123
0.00466229
0.00454775
0.00435822
0.00412243
0.00385678
0.00373277
0.00357638
0.00340782
0.00321927
0.00299583
0.00286236
0.00306085
0.00327444
0.00344603
0.00359064
0.00370904
0.00394285
0.00420973
0.00444498
0.00463334
0.00474307
0.0047017
0.00440783
0.00372017
0.00249814
0.00256237
0.0038137
0.00453535
0.00480931
0.0048089
0.0046544
0.0044267
0.0041587
0.00387318
0.00373945
0.00359047
0.0034367
0.00327427
0.00308875
0.00298144
0.00315086
0.00332839
0.003474
0.00360299
0.00370458
0.00396185
0.0042505
0.00451834
0.00474505
0.00489444
0.00488343
0.00459023
0.00382451
0.00260106
0.00268742
0.00395393
0.00474882
0.00502102
0.00498871
0.00479144
0.00452127
0.00421648
0.00390584
0.00375367
0.00361651
0.00348758
0.00336317
0.00322639
0.00315092
0.00328522
0.00341662
0.00352621
0.00363531
0.00372623
0.00399855
0.00431399
0.00461892
0.00488809
0.00507981
0.00509964
0.00480614
0.0039722
0.00273186
0.00283674
0.0041309
0.00499491
0.00526693
0.00520249
0.00496018
0.0046438
0.00429809
0.00395724
0.00376676
0.00365776
0.00356564
0.00348913
0.00340877
0.00337294
0.00345781
0.00354081
0.00360426
0.00368442
0.00376381
0.00405631
0.00440252
0.00474849
0.00506374
0.00530007
0.0053514
0.00505767
0.00416118
0.00288808
0.00300844
0.00434564
0.00527488
0.00554754
0.00545078
0.00516162
0.00479593
0.00440587
0.00403239
0.00377992
0.00371141
0.0036653
0.00363205
0.00360443
0.00361874
0.00360474
0.003677
0.00369353
0.00373258
0.00382047
0.00413755
0.0045183
0.0049086
0.00527291
0.00555567
0.00563901
0.00534502
0.00438831
0.00306633
0.00320031
0.00459744
0.00558918
0.00586308
0.00573392
0.00539661
0.00497921
0.00454211
0.0041318
0.00383606
0.00374297
0.0037282
0.00371053
0.00371731
0.00376643
0.00374253
0.00374327
0.00373249
0.00376931
0.00390347
0.00424466
0.00466349
0.00510064
0.00551631
0.00584682
0.00596236
0.00566756
0.00465157
0.00326284
0.00341003
0.00488669
0.00593786
0.0062137
0.00605228
0.00566601
0.0051952
0.00470919
0.00425884
0.00392976
0.0038031
0.00380558
0.00384111
0.00388385
0.00395296
0.00391935
0.00386772
0.00382435
0.0038507
0.00401656
0.00438068
0.00484032
0.00532608
0.00579469
0.00617371
0.0063213
0.00602486
0.00495273
0.00346427
0.0036221
0.00521514
0.00632079
0.0065995
0.00640632
0.00597083
0.00544565
0.00490966
0.0044172
0.00406147
0.00391489
0.00393553
0.00402075
0.00410184
0.0041822
0.00413912
0.00404683
0.00396817
0.00397915
0.00416451
0.00454956
0.0050513
0.00558659
0.00610898
0.00653673
0.00671577
0.00641657
0.00530024
0.00359891
0.00374737
0.00558867
0.00673758
0.00702071
0.00679681
0.00631239
0.0057326
0.00514641
0.00461134
0.00423404
0.00407866
0.00412048
0.0042522
0.00437284
0.00446146
0.00440839
0.00428201
0.00416689
0.00415867
0.00435277
0.00475776
0.00529934
0.0058842
0.00646049
0.00693658
0.0071458
0.00684074
0.00566754
0.00374193
0.00386711
0.00597099
0.0071858
0.00747761
0.0072249
0.00669246
0.00605855
0.00542285
0.00484848
0.00445235
0.00429738
0.00436416
0.00453971
0.00469933
0.00479639
0.00473317
0.00457635
0.0044248
0.00439372
0.00458699
0.00500925
0.00558786
0.00622145
0.00685099
0.0073744
0.0076118
0.007297
0.00605017
0.00388469
0.00384559
0.00635943
0.00766485
0.007971
0.00769221
0.00711333
0.00642652
0.00574288
0.00513307
0.00472204
0.00457542
0.00467064
0.00488743
0.00508386
0.00519043
0.00511764
0.00493308
0.00474621
0.00468899
0.00487314
0.0053088
0.00592083
0.00660141
0.00728283
0.00785183
0.00811444
0.007784
0.00644023
0.00387686
0.00390756
0.00676366
0.00817582
0.00850236
0.00820092
0.00757783
0.00684011
0.00611097
0.00547027
0.00504893
0.00491742
0.00504352
0.00529852
0.00552827
0.00564512
0.00556395
0.00535463
0.00513465
0.00504884
0.00521697
0.00566157
0.00630278
0.00702773
0.0077589
0.00837108
0.0086552
0.00830295
0.00684889
0.00394983
0.00402049
0.00718972
0.00872052
0.00907379
0.00875377
0.00808935
0.00730344
0.00653209
0.0058655
0.00543863
0.00532756
0.0054855
0.00577487
0.00603346
0.00616053
0.00607268
0.00584223
0.00559244
0.00547702
0.00562391
0.00607302
0.00673868
0.00750462
0.00828266
0.00893491
0.00923622
0.00885564
0.00728011
0.00407072
0.00416794
0.00764164
0.00930117
0.00968785
0.00935389
0.00865173
0.0078211
0.00701157
0.00632437
0.00589625
0.00580921
0.00599821
0.00631722
0.00659951
0.00673591
0.00664334
0.00639607
0.00612083
0.00597643
0.00609887
0.00654867
0.00723385
0.0080367
0.00885799
0.00954652
0.00986017
0.00944449
0.00773777
0.00422378
0.00434099
0.00812216
0.00992013
0.0103474
0.0100048
0.0092692
0.00839806
0.00755498
0.00685239
0.00642628
0.00636484
0.00658242
0.00692557
0.00722604
0.00737021
0.007275
0.00701571
0.00672022
0.00654922
0.00664612
0.00709393
0.00779375
0.00862889
0.00948909
0.0102094
0.01053
0.010072
0.00822483
0.0044009
0.00453448
0.00863325
0.0105797
0.0110553
0.0107101
0.00994618
0.00903944
0.00816789
0.00745483
0.00703254
0.00699618
0.00723834
0.00759953
0.00791259
0.00806257
0.00796679
0.00770047
0.00739055
0.00719693
0.00726936
0.00771389
0.0084238
0.00928623
0.0101804
0.0109273
0.0112486
0.0107407
0.00874332
0.00459758
0.00474527
0.00917636
0.0112822
0.0118146
0.0114737
0.0106872
0.00975038
0.00885568
0.00813653
0.00771833
0.00770452
0.00796597
0.00833881
0.00865894
0.00881258
0.00871822
0.00844984
0.00813166
0.00792074
0.00797187
0.00841314
0.00912918
0.0100137
0.0109363
0.0117039
0.0120191
0.0114527
0.00929461
0.00481123
0.00497149
0.00975263
0.0120295
0.0126281
0.0122991
0.0114967
0.0105359
0.00962337
0.00890173
0.00848666
0.00849091
0.00876539
0.00914337
0.00946533
0.00962049
0.0095294
0.0092637
0.00894355
0.00872186
0.00875916
0.00919569
0.00991461
0.0108161
0.0117611
0.0125427
0.0128443
0.0122101
0.00987966
0.00504046
0.00521205
0.010363
0.0128236
0.0134985
0.0131899
0.0123789
0.0114004
0.0104754
0.00975404
0.00934279
0.00935654
0.00963697
0.0100137
0.0103326
0.0104873
0.0104011
0.0101425
0.00982655
0.00960127
0.00963331
0.0100649
0.0107843
0.0116979
0.012659
0.0134474
0.0137268
0.0130145
0.0104992
0.00528469
0.00546636
0.0110082
0.013666
0.0144283
0.0141494
0.0133375
0.0123482
0.0114155
0.0106963
0.0102889
0.0103025
0.0105814
0.0109507
0.0112622
0.0114145
0.0113347
0.0110872
0.0107814
0.0105599
0.0105956
0.0110233
0.0117418
0.0126628
0.0136335
0.014421
0.0146691
0.0138676
0.0111536
0.00554378
0.00573405
0.0116889
0.0145583
0.0154197
0.0151803
0.014376
0.0133824
0.0124466
0.0117306
0.0113255
0.0113297
0.0115996
0.011956
0.0122561
0.0124045
0.0123324
0.0120995
0.0118092
0.0115988
0.0116468
0.012073
0.0127898
0.0137142
0.014688
0.0154662
0.015673
0.0147705
0.0118431
0.00581763
0.00601495
0.0124054
0.0155013
0.0164742
0.016285
0.0154969
0.0145059
0.0135709
0.0128583
0.0124533
0.012439
0.0126931
0.0130314
0.0133169
0.01346
0.0133966
0.0131814
0.0129115
0.0127188
0.0127876
0.0132153
0.0139304
0.0148545
0.0158249
0.0165852
0.0167401
0.0157241
0.0125677
0.00610595
0.006309
0.0131581
0.0164958
0.0175933
0.0174651
0.0167022
0.0157204
0.0147896
0.0140802
0.0136722
0.0136316
0.0138636
0.0141793
0.0144474
0.0145841
0.0145303
0.0143354
0.0140901
0.0139214
0.0140185
0.0144509
0.0151648
0.0160853
0.0170459
0.0177795
0.0178716
0.0167289
0.0133274
0.00640824
0.00661624
0.013947
0.0175422
0.0187775
0.0187217
0.017993
0.0170266
0.0161032
0.0153963
0.0149824
0.0149088
0.0151129
0.0154024
0.0156508
0.0157803
0.0157369
0.0155642
0.0153472
0.0152084
0.0153398
0.0157799
0.0164934
0.0174075
0.0183521
0.0190501
0.0190679
0.0177851
0.014122
0.00672382
0.00693675
0.0147717
0.0186399
0.0200267
0.0200549
0.0193695
0.0184247
0.0175112
0.016806
0.0163835
0.0162726
0.0164435
0.0167035
0.0169306
0.0170523
0.0170198
0.0168709
0.0166852
0.0165815
0.0167513
0.0172019
0.0179156
0.0188207
0.0197435
0.0203968
0.0203288
0.0188924
0.0149515
0.00705188
0.00727046
0.0156315
0.0197883
0.0213402
0.021464
0.0208309
0.0199135
0.0190123
0.0183082
0.0178749
0.0177264
0.0178575
0.0180856
0.0182902
0.0184039
0.0183825
0.0182584
0.0181065
0.0180483
0.0182524
0.0187156
0.0194303
0.020324
0.0212191
0.021819
0.0216534
0.02005
0.0158156
0.00739166
0.00761721
0.0165253
0.0209856
0.0227162
0.0229473
0.0223753
0.0214909
0.0206044
0.019901
0.0194555
0.0192743
0.0193572
0.0195517
0.0197333
0.0198387
0.0198284
0.0197297
0.0196135
0.0196068
0.0198422
0.0203193
0.021035
0.0219149
0.0227769
0.0233147
0.0230401
0.0212564
0.0167137
0.00774257
0.00797675
0.0174514
0.0222296
0.0241523
0.024502
0.0239998
0.023154
0.0222846
0.0215818
0.0211236
0.0209135
0.0209456
0.0211047
0.0212631
0.0213603
0.021361
0.0212877
0.0212087
0.0212548
0.0215188
0.0220104
0.0227268
0.0235904
0.0244139
0.0248811
0.0244863
0.0225094
0.0176446
0.00810444
0.00834869
0.0184076
0.0235172
0.0256448
0.0261243
0.0257004
0.0248985
0.0240488
0.0233476
0.0228769
0.0226416
0.0226231
0.0227476
0.0228828
0.022972
0.0229834
0.0229355
0.0228939
0.0229902
0.0232799
0.0237856
0.0245017
0.0253463
0.0261258
0.0265143
0.0259884
0.0238057
0.0186064
0.00847742
0.00873251
0.0193913
0.0248446
0.0271892
0.0278091
0.0274718
0.0267194
0.0258925
0.0251944
0.0247126
0.0244556
0.024397
0.0244828
0.024596
0.0246774
0.0246992
0.0246751
0.0246769
0.0248104
0.0251226
0.0256407
0.0263548
0.0271772
0.0279076
0.0282093
0.0275419
0.0251415
0.0195964
0.00886177
0.00912758
0.0203994
0.0262072
0.0287799
0.0295505
0.0293077
0.0286104
0.0278097
0.0271172
0.0266267
0.0263523
0.026265
0.026311
0.0264039
0.0264787
0.0265093
0.0265105
0.0265512
0.0267121
0.0270428
0.0275707
0.0282801
0.0290768
0.0297526
0.02996
0.0291412
0.0265118
0.0206115
0.00925751
0.00953313
0.0214282
0.0275995
0.0304105
0.0313412
0.0312007
0.0305641
0.0297939
0.0291102
0.0286147
0.0283274
0.0282206
0.0282413
0.0283105
0.0283766
0.0284201
0.0284452
0.0285108
0.028691
0.0290356
0.0295697
0.0302708
0.0310378
0.0316534
0.0317589
0.0307796
0.0279112
0.0216473
0.00966422
0.00994823
0.0224733
0.0290152
0.0320732
0.0331727
0.033142
0.0325721
0.0318371
0.0311667
0.0306705
0.0303756
0.0302572
0.0302635
0.030319
0.0303799
0.0304309
0.0304698
0.0305499
0.0307419
0.0310949
0.0316304
0.032319
0.0330515
0.0336013
0.0335974
0.0324492
0.0293331
0.0226993
0.010081
0.0103718
0.0235298
0.030447
0.0337593
0.0350355
0.0351218
0.0346248
0.0339303
0.0332783
0.032787
0.0324905
0.0323678
0.0323682
0.0324179
0.0324763
0.0325307
0.0325756
0.0326616
0.0328582
0.0332135
0.0337447
0.0344154
0.0351082
0.035586
0.0354658
0.0341411
0.0307701
0.0237622
0.0105064
0.0108025
0.0245922
0.0318867
0.0354589
0.0369185
0.0371287
0.036711
0.0360632
0.0354357
0.0349556
0.0346643
0.0345444
0.0345464
0.0345963
0.0346545
0.034709
0.0347536
0.0348382
0.0350321
0.0353826
0.035903
0.0365499
0.037197
0.0375964
0.0373529
0.0358453
0.0322141
0.0248302
0.010939
0.0112389
0.0256542
0.0333253
0.037161
0.0388097
0.0391502
0.0388185
0.0382239
0.0376278
0.037166
0.0368872
0.0367776
0.0367879
0.0368433
0.0369029
0.0369551
0.0369939
0.0370701
0.037254
0.0375921
0.0380943
0.0387104
0.0393053
0.0396198
0.0392468
0.0375505
0.0336558
0.025897
0.0113771
0.0116791
0.026709
0.0347527
0.0388534
0.0406958
0.0411725
0.0409333
0.0403991
0.0398418
0.0394065
0.0391481
0.0390561
0.0390812
0.0391467
0.0392094
0.039257
0.0392852
0.0393463
0.0395123
0.0398299
0.0403059
0.0408839
0.0414195
0.0416424
0.0411338
0.0392446
0.0350853
0.0269557
0.0118189
0.0121214
0.0277494
0.0361583
0.0405231
0.042562
0.0431802
0.0430402
0.0425737
0.0420635
0.041663
0.0414334
0.0413667
0.0414129
0.0414927
0.0415599
0.0416009
0.041614
0.0416537
0.041794
0.0420824
0.0425237
0.0430554
0.0435243
0.0436489
0.0429995
0.0409146
0.0364919
0.0279989
0.0122624
0.0125637
0.0287675
0.0375306
0.042156
0.0443927
0.0451569
0.0451224
0.0447315
0.0442768
0.0439199
0.0437277
0.0436941
0.0437675
0.0438655
0.0439384
0.0439712
0.0439649
0.0439768
0.0440834
0.044334
0.0447317
0.0452086
0.045603
0.045623
0.0448282
0.0425465
0.0378641
0.0290186
0.0127056
0.0130036
0.0297552
0.0388577
0.0437374
0.0461714
0.0470847
0.0471618
0.0468541
0.0464636
0.0461594
0.0460134
0.0460206
0.046127
0.046247
0.0463267
0.0463498
0.0463202
0.0462982
0.0463633
0.0465672
0.0469121
0.0473255
0.0476377
0.0475469
0.0466036
0.0441258
0.0391903
0.0300069
0.013146
0.013439
0.0307042
0.0401272
0.0452521
0.0478805
0.0489452
0.0491392
0.0489221
0.0486044
0.048362
0.0482708
0.0483261
0.0484712
0.0486165
0.0487042
0.0487163
0.0486597
0.0485979
0.0486141
0.0487624
0.0490455
0.0493866
0.0496091
0.0494022
0.0483084
0.0456372
0.0404581
0.0309555
0.0135812
0.0138674
0.031606
0.0413265
0.0466843
0.0495022
0.0507188
0.0510342
0.0509147
0.0506781
0.0505062
0.0504781
0.0505887
0.0507775
0.0509511
0.0510479
0.0510477
0.0509609
0.0508541
0.0508141
0.0508985
0.0511107
0.0513712
0.0514967
0.0511694
0.0499247
0.0470653
0.0416551
0.031856
0.0140084
0.0142864
0.032452
0.0424431
0.0480182
0.0510182
0.0523857
0.0528258
0.0528099
0.052662
0.0525689
0.0526117
0.052784
0.0530211
0.0532258
0.0533324
0.053319
0.0531992
0.0530426
0.0529398
0.0529524
0.0530855
0.0532571
0.0532796
0.0528286
0.0514344
0.0483943
0.0427685
0.0327001
0.0144253
0.0146934
0.0332336
0.0434643
0.0492382
0.0524104
0.0539257
0.0544922
0.0545851
0.0545328
0.0545258
0.0546464
0.054886
0.0551753
0.0554132
0.0555303
0.0555029
0.0553477
0.0551372
0.054966
0.0548999
0.0549461
0.0550218
0.054936
0.0543596
0.0528192
0.0496085
0.0437858
0.0334794
0.0148296
0.0150859
0.0339423
0.044378
0.0503289
0.0536609
0.0553187
0.0560118
0.056217
0.0562659
0.0563514
0.0565559
0.0568674
0.0572118
0.0574843
0.0576123
0.0575704
0.057378
0.0571105
0.0568662
0.0567153
0.056668
0.0566419
0.0564439
0.0557422
0.0540612
0.0506926
0.0446945
0.0341854
0.0152193
0.015461
0.0345701
0.0451725
0.0512758
0.0547524
0.0565452
0.0573629
0.0576823
0.0578367
0.0580198
0.0583127
0.0586995
0.059101
0.0594089
0.0595479
0.0594911
0.0592605
0.0589338
0.0586128
0.0583725
0.0582265
0.058094
0.0577818
0.0569567
0.0551428
0.0516318
0.0454829
0.0348098
0.0155921
0.0158162
0.0351093
0.045837
0.0520651
0.0556683
0.0575861
0.0585245
0.0589582
0.0592206
0.0595047
0.0598891
0.0603532
0.0608126
0.061156
0.0613059
0.0612341
0.0609648
0.0605779
0.0601781
0.059845
0.0595968
0.0593552
0.0589285
0.0579841
0.0560474
0.0524122
0.0461399
0.0353446
0.0159455
0.0161485
0.0355529
0.0463617
0.0526844
0.0563937
0.058424
0.0594765
0.0600224
0.0603932
0.0607798
0.0612572
0.0617993
0.0623163
0.0626946
0.062855
0.0627684
0.0624607
0.0620134
0.0615337
0.0611063
0.0607543
0.0604033
0.0598641
0.0588068
0.0567601
0.0530214
0.0466558
0.0357825
0.016277
0.0164551
0.0358948
0.0467381
0.0531226
0.056915
0.0590428
0.0602003
0.0608538
0.0613309
0.0618192
0.0623891
0.0630084
0.0635818
0.063994
0.0641645
0.0640634
0.0637181
0.063211
0.0626519
0.0621304
0.0616755
0.0612171
0.0605703
0.0594091
0.0572673
0.0534484
0.0470224
0.0361173
0.0165833
0.0167332
0.0361297
0.046959
0.0533708
0.0572209
0.0594285
0.0606793
0.061433
0.062033
0.0626424
0.0632935
0.0639582
0.0645803
0.0650248
0.0652046
0.0650898
0.0647081
0.0641435
0.0635341
0.0629288
0.0623516
0.0617776
0.0610306
0.0597772
0.0575579
0.053684
0.0472327
0.036344
0.0168612
0.0169801
0.0362534
0.0470191
0.053422
0.0573025
0.0595698
0.0609007
0.0617968
0.0625448
0.0632583
0.0639821
0.0646915
0.0653252
0.0657695
0.0659487
0.0658284
0.065441
0.0648607
0.0642023
0.0635214
0.0628389
0.0621133
0.0612323
0.0599003
0.0576232
0.0537216
0.0472817
0.0364589
0.0171072
0.0171931
0.036263
0.0469149
0.0532717
0.0571537
0.0594603
0.0609173
0.0619762
0.0628436
0.0636461
0.0644341
0.0651845
0.0658335
0.066281
0.0664589
0.0663348
0.0659386
0.0653386
0.0646349
0.063887
0.0631144
0.0622679
0.0612219
0.059772
0.0574575
0.0535569
0.0471663
0.0364595
0.0173186
0.0173695
0.0361565
0.0466448
0.0529181
0.0567732
0.0591425
0.0607674
0.0619496
0.0629121
0.0637892
0.0646326
0.0654192
0.0660837
0.066536
0.0667129
0.066585
0.0661791
0.0655589
0.0648149
0.0640089
0.0631607
0.0622181
0.0610483
0.0594295
0.0570596
0.0531884
0.0468849
0.0363446
0.0174926
0.0175069
0.0359333
0.0462092
0.0523625
0.0561694
0.0586905
0.0604293
0.0617008
0.0627373
0.0636752
0.0645645
0.0653811
0.0660595
0.0665164
0.0666925
0.0665609
0.066146
0.0655074
0.0647293
0.0638746
0.0629646
0.0619478
0.0606883
0.0589557
0.0564379
0.0526176
0.046438
0.0361136
0.0176269
0.0176027
0.0355937
0.0456106
0.051612
0.0554683
0.0580797
0.0598874
0.0612191
0.0623102
0.0632951
0.0642203
0.0650599
0.0657488
0.0662088
0.0663837
0.0662492
0.0658269
0.0651737
0.0643686
0.0634753
0.0625172
0.0614456
0.0601261
0.058325
0.0557155
0.0518517
0.045828
0.0357669
0.0177193
0.0176544
0.0351389
0.0448543
0.0507309
0.054647
0.0572933
0.0591316
0.0604976
0.0616251
0.0626434
0.0635939
0.0644487
0.0651433
0.0656038
0.0657771
0.0656403
0.0652136
0.0645507
0.0637268
0.0628055
0.0618127
0.0607046
0.0593513
0.0575199
0.0548753
0.0509524
0.0450606
0.0353055
0.0177675
0.0176594
0.0345712
0.0439529
0.0497801
0.0536867
0.0563204
0.058156
0.0595326
0.060679
0.0617169
0.0626816
0.0635432
0.0642379
0.0646956
0.0648662
0.0647283
0.0643007
0.0636342
0.0628001
0.061862
0.0608481
0.0597208
0.0583574
0.0565293
0.0538976
0.0499854
0.0441477
0.0347312
0.0177691
0.0176228
0.0338948
0.0429779
0.0487342
0.0525745
0.0551541
0.0569572
0.0583225
0.0594705
0.0605142
0.061482
0.0623415
0.0630297
0.0634807
0.0636474
0.0635097
0.0630852
0.0624219
0.061587
0.0606433
0.059622
0.0584925
0.0571409
0.0553461
0.0527691
0.0489248
0.0431591
0.0340479
0.0177273
0.0175592
0.0331256
0.0419518
0.0475765
0.0513013
0.0537904
0.0555336
0.0568666
0.0579997
0.0590353
0.0599946
0.0608425
0.0615172
0.0619573
0.0621184
0.0619824
0.0615656
0.0609129
0.0600868
0.0591492
0.0581341
0.0570191
0.0557001
0.0539661
0.0514808
0.0477534
0.0421208
0.0332696
0.0176588
0.017465
0.0323231
0.0408554
0.0462947
0.049861
0.0522262
0.0538842
0.0551648
0.0562664
0.0572801
0.0582192
0.0590455
0.0596994
0.0601236
0.0602775
0.060145
0.0597408
0.0591062
0.0582992
0.0573795
0.0563846
0.0553002
0.054034
0.0523863
0.050026
0.0464587
0.041013
0.0324585
0.0175599
0.0173362
0.031474
0.0396731
0.0448792
0.0482483
0.0504591
0.0520075
0.0532162
0.0542702
0.055248
0.0561548
0.0569493
0.0575742
0.0579772
0.0581219
0.0579949
0.0576087
0.0570006
0.0562231
0.0553334
0.0543726
0.0533351
0.0521413
0.0506041
0.0483996
0.0450312
0.0398203
0.0316013
0.0174263
0.0171675
0.0305665
0.0383926
0.0433218
0.0464578
0.0484851
0.0499006
0.0510184
0.0520087
0.0529366
0.0537988
0.0545506
0.0551378
0.0555136
0.055647
0.0555278
0.0551657
0.0545928
0.0538557
0.0530086
0.052096
0.0511216
0.0500192
0.0486159
0.0465963
0.0434624
0.0385299
0.0306859
0.0172528
0.0169528
0.0295894
0.0370022
0.041614
0.0444831
0.0462988
0.0475585
0.0485661
0.0494769
0.0503409
0.0511454
0.0518429
0.0523829
0.0527245
0.0528439
0.0527356
0.0524046
0.0518765
0.0511912
0.0503999
0.0495499
0.0486546
0.0476626
0.0464162
0.0446094
0.0417438
0.0371302
0.0297014
0.0170333
0.016685
0.0285312
0.0354903
0.0397457
0.0423149
0.0438915
0.0449724
0.0458509
0.0466659
0.0474515
0.0481848
0.0488154
0.0492972
0.0495962
0.0496981
0.0496045
0.0493132
0.0488408
0.0482199
0.0474981
0.0467255
0.0459257
0.0450632
0.0439964
0.0424299
0.0398654
0.0356096
0.0286364
0.0167607
0.0163552
0.0273795
0.0338433
0.0377039
0.039941
0.0412507
0.0421295
0.0428594
0.0435622
0.0442544
0.0449019
0.0454515
0.0458619
0.0461069
0.0461861
0.0461132
0.0458728
0.0454692
0.044927
0.0442893
0.0436093
0.0429217
0.0422082
0.0413442
0.0400454
0.0378142
0.0339542
0.0274783
0.0164263
0.0159528
0.026119
0.0320441
0.0354718
0.0373447
0.0383594
0.0390119
0.0395729
0.0401461
0.0407294
0.0412755
0.0417273
0.0420496
0.0422239
0.0422715
0.0422287
0.0420559
0.041738
0.0412913
0.0407536
0.040182
0.0396239
0.0390796
0.0384425
0.0374394
0.0355732
0.0321472
0.0262118
0.0160195
0.0154635
0.0247298
0.0300703
0.0330273
0.034505
0.0351967
0.0355972
0.0359672
0.0363925
0.0368502
0.0372777
0.0376113
0.0378221
0.0378983
0.0378983
0.037903
0.0378247
0.0376158
0.037285
0.0368647
0.0364184
0.0360084
0.0356554
0.0352706
0.0345911
0.0331206
0.030166
0.024817
0.015526
0.0148684
0.0231847
0.0278917
0.0303424
0.0313985
0.0317409
0.0318619
0.0320156
0.032272
0.0325859
0.0328757
0.0330657
0.0331307
0.0330591
0.032979
0.033066
0.0331306
0.0330646
0.0328751
0.0325919
0.0322895
0.0320489
0.0319125
0.0318073
0.0314771
0.0304285
0.0279804
0.0232663
0.014927
0.0141404
0.0214444
0.0254679
0.0273861
0.0280064
0.0279816
0.0277955
0.0277019
0.0277622
0.0279105
0.0280407
0.0280558
0.0279222
0.0276005
0.0273662
0.027615
0.0279208
0.0280499
0.0280335
0.0279099
0.0277739
0.0277302
0.0278414
0.0280429
0.0280792
0.027466
0.0255503
0.0215204
0.0141952
0.0132366
0.0194466
0.0227411
0.0241246
0.0243284
0.0239475
0.0234388
0.023061
0.0228843
0.0228338
0.0227767
0.0225815
0.0221735
0.0213819
0.0208182
0.0214159
0.0221737
0.0225722
0.0227652
0.0228304
0.0228949
0.0230891
0.0234841
0.0240069
0.0243977
0.0241997
0.0228179
0.0195168
0.0132875
0.0120857
0.0170941
0.0196335
0.0205349
0.0204176
0.0197731
0.0189892
0.0183145
0.0178478
0.0175384
0.0172501
0.0168147
0.0160409
0.0137753
0.0119752
0.0138858
0.0160506
0.0168056
0.0172408
0.0175406
0.0178662
0.01835
0.0190393
0.0198339
0.0204851
0.020606
0.0197048
0.0171581
0.0121326
0.0105238
0.0141351
0.0159151
0.0164621
0.0162245
0.0155434
0.0146859
0.0138408
0.0131113
0.012404
0.0117299
0.0109613
0.0097018
0.00825618
0.00727944
0.00843578
0.00975603
0.01097
0.0117387
0.0124267
0.0131471
0.013888
0.0147417
0.015605
0.0162894
0.016528
0.0159792
0.0141914
0.0105661
0.00800926
0.00980404
0.0106963
0.0109325
0.0107166
0.0102069
0.00952498
0.00876385
0.00797985
0.00732646
0.00682619
0.00639886
0.00577502
0.00550953
0.00485612
0.00567813
0.00583519
0.0064315
0.00685882
0.00736513
0.0080263
0.00881437
0.00957816
0.0102614
0.0107714
0.0109862
0.0107471
0.00984855
0.00804418
0.00353754
0.00395241
0.00422277
0.00439312
0.00448558
0.00450693
0.00446121
0.0043477
0.00415859
0.00389294
0.0035453
0.00311813
0.00264106
0.00215449
0.00186969
0.00229093
0.00277532
0.00323302
0.00363879
0.00397235
0.00423745
0.00442851
0.00455044
0.00460381
0.00458103
0.00447649
0.00429647
0.00402672
0.00360796
0.0033104
0.004622
0.00516287
0.00550681
0.00565808
0.00566424
0.0055627
0.00537046
0.00510544
0.00473079
0.00429212
0.00379068
0.0032679
0.00290822
0.00275616
0.00297658
0.00339627
0.0039007
0.00438099
0.00481481
0.00517399
0.0054541
0.00566446
0.00578269
0.00577675
0.00561211
0.00525236
0.00469823
0.00338224
0.00309462
0.00468495
0.00549265
0.00598433
0.00622363
0.00625299
0.00612524
0.00587781
0.0055431
0.00509976
0.00464743
0.00414632
0.00362986
0.0032902
0.00315115
0.00334543
0.00374785
0.00424856
0.00473958
0.00521432
0.00562955
0.00597671
0.00624064
0.0063826
0.00635172
0.0060997
0.00558718
0.00473589
0.00316494
0.00289781
0.00462003
0.00558323
0.00618323
0.00648454
0.00653043
0.00638503
0.00610223
0.00572631
0.00528045
0.0048009
0.00432215
0.00383407
0.00349486
0.00334434
0.00354823
0.00393645
0.00440819
0.00487535
0.00538331
0.00582748
0.0062127
0.0065081
0.00666296
0.00661356
0.00629902
0.00567585
0.00464867
0.00296411
0.00273729
0.00455689
0.0056165
0.00628
0.0066105
0.00665852
0.00649766
0.00619313
0.00579728
0.00534444
0.00484528
0.00440453
0.00395178
0.00360631
0.00343718
0.00366213
0.00404155
0.00448568
0.00495785
0.00545044
0.00590724
0.00631114
0.00662477
0.00679072
0.00673772
0.00639425
0.00570958
0.00460113
0.00279908
0.00261551
0.00452843
0.00564689
0.00633311
0.0066599
0.00669295
0.00651524
0.00619789
0.00579568
0.00534248
0.00484355
0.00443337
0.0040144
0.00366111
0.00347409
0.00372083
0.00409348
0.00450574
0.00496641
0.00545331
0.00591111
0.00632033
0.00664394
0.00682357
0.00678449
0.00644495
0.00573934
0.00458415
0.00267323
0.00252923
0.0045367
0.00569345
0.00637457
0.0066734
0.00667748
0.00647973
0.00615359
0.00575179
0.00530324
0.00482622
0.00443189
0.0040408
0.00368053
0.00347948
0.0037444
0.00411114
0.00448984
0.00493643
0.00541727
0.00587088
0.00627874
0.00660908
0.00680665
0.00679585
0.00648431
0.00578476
0.00459721
0.00258408
0.00247515
0.00457529
0.00576098
0.00642018
0.0066755
0.0066406
0.00641905
0.00608467
0.00568534
0.00524144
0.00478157
0.00440975
0.00404256
0.00367819