/*--------------------------------*- C++ -*----------------------------------*\
| =========                 |                                                 |
| \\      /  F ield         | OpenFOAM: The Open Source CFD Toolbox           |
|  \\    /   O peration     | Version:  5.x                                   |
|   \\  /    A nd           | Web:      www.OpenFOAM.org                      |
|    \\/     M anipulation  |                                                 |
\*---------------------------------------------------------------------------*/
/*   Windows 32 and 64 bit porting by blueCAPE: http://www.bluecape.com.pt   *\
|  Based on Windows porting (2.0.x v4) by Symscape: http://www.symscape.com   |
\*---------------------------------------------------------------------------*/
FoamFile
{
    version     2.0;
    format      ascii;
    class       volScalarField;
    location    "3.15";
    object      epsilon;
}
// * * * * * * * * * * * * * * * * * * * * * * * * * * * * * * * * * * * * * //

dimensions      [0 2 -3 0 0 0 0];

internalField   nonuniform List<scalar> 
400055
(
0.00367564
0.00503132
0.00625564
0.00712954
0.00756063
0.00755584
0.00738101
0.00713396
0.0068988
0.00667504
0.00646152
0.00625931
0.00607792
0.00594672
0.00590831
0.00599486
0.00615043
0.00634458
0.006562
0.0067973
0.00703781
0.00727902
0.00750321
0.00765695
0.00762848
0.00719257
0.006308
0.00504463
0.00365938
0.00251907
0.00371203
0.00462852
0.00528621
0.0055816
0.00559375
0.0054964
0.0053326
0.00516622
0.00501358
0.00486834
0.00473005
0.00460791
0.00452147
0.00449776
0.00455293
0.00465428
0.00478198
0.00492714
0.00508667
0.00525325
0.00542221
0.00557173
0.00567467
0.00563968
0.00533577
0.0046671
0.00372937
0.00254543
0.00253483
0.00392938
0.00496069
0.00566473
0.00590844
0.00593897
0.00592368
0.00577083
0.00560303
0.00545716
0.0053106
0.00516619
0.00504067
0.00495255
0.00493045
0.00498295
0.00508608
0.00521572
0.00536542
0.00552577
0.00568961
0.00584826
0.00592851
0.00606647
0.00595876
0.00574099
0.00500482
0.00395504
0.00258438
0.00256056
0.00411309
0.00527765
0.00593389
0.00595078
0.00600167
0.00625776
0.00609828
0.00596419
0.00587215
0.00574503
0.00559645
0.00546572
0.0053762
0.00536177
0.00540486
0.00551275
0.0056423
0.00579484
0.00594293
0.00607097
0.00613318
0.00571787
0.0267031
0.00566312
0.00608156
0.00533118
0.00414317
0.00260992
0.00259155
0.00430328
0.00558968
0.00596437
0.00608534
0.00621827
0.0279256
0.00588413
0.00605596
0.00619731
0.00617457
0.00603652
0.00590307
0.00581748
0.00582677
0.00581424
0.00592045
0.00604444
0.00617729
0.0266544
0.0267241
0.00593526
0.00584953
0.0279472
0.00578431
0.0270081
0.00566755
0.00433647
0.00263428
0.00262646
0.00451018
0.00587067
0.00612082
0.0265832
0.0295976
0.0287144
0.0267667
0.0265695
0.00606314
0.0278616
0.0274217
0.0265405
0.00621394
0.0264918
0.00603368
0.00590361
0.00620371
0.00604254
0.0272418
0.0061187
0.027043
0.0269305
0.00612725
0.027009
0.0268977
0.0059346
0.00454433
0.0026625
0.00266713
0.00471673
0.00565268
0.0268999
0.00611915
0.0301686
0.030279
0.0269959
0.0287089
0.0267132
0.0273047
0.0284601
0.00626084
0.0062143
0.0278707
0.0270685
0.00613433
0.0276038
0.00600089
0.0289394
0.00626552
0.00586608
0.00591474
0.00590195
0.0293703
0.00603422
0.00570637
0.00474683
0.00269828
0.0027146
0.00493519
0.00573339
0.0286048
0.0300238
0.0292004
0.0319207
0.0292952
0.0295916
0.0294362
0.0290027
0.0268272
0.0282721
0.028151
0.0297958
0.00620518
0.00614741
0.0298778
0.0280834
0.0311196
0.0300916
0.00603405
0.028577
0.028591
0.0290254
0.00618466
0.00606613
0.00494786
0.00274225
0.00277001
0.00515154
0.00588853
0.027397
0.0326847
0.0332416
0.0339394
0.03141
0.0317875
0.0320854
0.0291698
0.0278304
0.0287389
0.0286901
0.0286711
0.0275485
0.0268983
0.0284806
0.028372
0.028249
0.0278734
0.02693
0.0320105
0.0320886
0.0313193
0.00601744
0.0264605
0.00516473
0.00279573
0.00283463
0.00536106
0.0268843
0.00614938
0.0268898
0.0353176
0.0363447
0.0300367
0.0305345
0.0314054
0.0300298
0.0296477
0.0302002
0.0303009
0.0301596
0.0299144
0.0293688
0.0297234
0.0297041
0.0291088
0.0287516
0.0290216
0.0344375
0.0344513
0.0339198
0.00612527
0.00618072
0.00539462
0.00285881
0.0029078
0.00555763
0.0059561
0.00620865
0.0273023
0.0293241
0.0303403
0.030021
0.0309416
0.0320572
0.0319433
0.0321582
0.0326292
0.0328566
0.032854
0.0328387
0.0324283
0.0322293
0.0320057
0.0313097
0.0306069
0.0303403
0.0319631
0.0321816
0.0357233
0.027241
0.0272503
0.00561762
0.00293089
0.00298817
0.00575934
0.00599923
0.0277935
0.0297128
0.0303534
0.0310665
0.0317053
0.0327471
0.0340195
0.0346455
0.0352667
0.035847
0.0362202
0.0363478
0.03633
0.0359406
0.0354054
0.0348724
0.0339918
0.0329317
0.0321278
0.0320386
0.0319236
0.0331602
0.0288823
0.0288806
0.00582939
0.00301051
0.00307357
0.00594959
0.00619847
0.029864
0.0319169
0.0328545
0.033568
0.0342444
0.0353022
0.0366984
0.0378142
0.0387775
0.0395596
0.040104
0.0403368
0.0402374
0.0397609
0.0389734
0.0381098
0.0369654
0.0357111
0.0347593
0.0342167
0.0336149
0.0330774
0.0304822
0.0302369
0.00602088
0.0030958
0.00316188
0.00611762
0.0275773
0.0317377
0.0342404
0.0358297
0.0367299
0.0373651
0.0383796
0.039855
0.0413425
0.0426181
0.0436461
0.0443809
0.0447075
0.0445066
0.0438794
0.0428654
0.0416945
0.0402791
0.0389465
0.038036
0.0374267
0.0364379
0.0347395
0.0319436
0.0292084
0.00615993
0.00318308
0.00324688
0.00623741
0.0290958
0.033632
0.0368436
0.0391721
0.0403899
0.041028
0.0419573
0.0434519
0.0451998
0.0467851
0.048077
0.0490132
0.0494312
0.0491294
0.0483222
0.0470849
0.0456131
0.0440016
0.0426692
0.0418516
0.0412126
0.0398545
0.0373008
0.0337643
0.0294049
0.00625285
0.00326942
0.00328614
0.00617903
0.0301321
0.035626
0.0397318
0.042844
0.044495
0.0452116
0.0460461
0.0475038
0.0494137
0.0513041
0.0528598
0.0540032
0.0545139
0.0541165
0.0531175
0.0516583
0.0499074
0.0481787
0.0469013
0.0461739
0.0454393
0.043643
0.0403323
0.0359504
0.0302227
0.00604154
0.00334379
0.0033454
0.00614447
0.0312505
0.0378752
0.0429339
0.0468419
0.0490185
0.0498945
0.0506497
0.0520285
0.0540244
0.0561781
0.0580097
0.0593654
0.0599717
0.0594823
0.0582844
0.0565796
0.0546076
0.0528302
0.0516462
0.0509857
0.0500705
0.0477441
0.0436793
0.0384174
0.0316569
0.00616824
0.00338513
0.00342701
0.00617489
0.0327234
0.0404693
0.0464817
0.0511709
0.0539411
0.0550532
0.0557618
0.0570354
0.0590562
0.0614098
0.0635359
0.065111
0.065818
0.0652362
0.0638305
0.0618636
0.0597318
0.0579625
0.0568952
0.0562674
0.0550919
0.0521588
0.0473323
0.0411421
0.0332513
0.00625504
0.00345278
0.00355634
0.00611625
0.0344274
0.043431
0.0503929
0.0558373
0.0592522
0.0606708
0.0613756
0.0625315
0.0645269
0.0670265
0.0694367
0.0712459
0.0720599
0.0713821
0.0697484
0.0675355
0.0652949
0.06358
0.0626395
0.0620021
0.0604951
0.0568998
0.051323
0.0442078
0.0351885
0.0270944
0.00354811
0.00367143
0.00607684
0.0365198
0.0467517
0.0546645
0.0608482
0.064951
0.0667408
0.0674881
0.0685247
0.0704528
0.0730469
0.0756928
0.077765
0.0786985
0.0779118
0.0760304
0.0736154
0.0713133
0.0696899
0.0688753
0.0681831
0.0662809
0.0619793
0.0556572
0.0475887
0.0372113
0.00618172
0.00367542
0.00383974
0.00620246
0.0390379
0.0504836
0.0593356
0.0662296
0.0710525
0.0732685
0.0741014
0.0750241
0.0768514
0.0794932
0.0823358
0.0846688
0.0857259
0.0848292
0.0827068
0.0801264
0.0778059
0.0763026
0.0756053
0.0748158
0.0724675
0.0674329
0.0603997
0.0514132
0.0398569
0.0265475
0.00384962
0.00406298
0.0275031
0.0419468
0.0545915
0.0644319
0.0720134
0.0775801
0.0802664
0.0812221
0.0820404
0.0837422
0.08639
0.0893917
0.0919529
0.0931478
0.0921291
0.0898039
0.087094
0.0847929
0.0834298
0.0828377
0.0819145
0.0790819
0.0732975
0.0655753
0.0556093
0.0428767
0.0280265
0.00407456
0.0043536
0.0293526
0.0452582
0.0591463
0.0700308
0.0782508
0.0845643
0.0877504
0.0888596
0.0895856
0.0911458
0.0937648
0.0968904
0.0996526
0.100974
0.0998523
0.097352
0.0945458
0.0922953
0.0910851
0.0905848
0.0894988
0.0861577
0.0796232
0.0712551
0.0602215
0.0461919
0.0298883
0.00436662
0.00473435
0.0318029
0.0491539
0.0642928
0.076233
0.0849959
0.0920349
0.0957377
0.0970265
0.0976743
0.0990839
0.101647
0.104865
0.107806
0.109244
0.108035
0.105384
0.10251
0.100334
0.0992838
0.0988621
0.0975914
0.093731
0.0864705
0.0775499
0.0654245
0.0500839
0.0323496
0.00474707
0.00521806
0.0350725
0.0538125
0.0701574
0.0831256
0.0924223
0.100053
0.104256
0.105741
0.106325
0.10758
0.110066
0.113351
0.116452
0.118001
0.116716
0.113933
0.111016
0.108933
0.108045
0.107691
0.106225
0.101871
0.0940498
0.084544
0.0713518
0.054749
0.0356188
0.00522729
0.00576931
0.0392785
0.0593139
0.0767999
0.0907492
0.10066
0.108693
0.11335
0.115032
0.11556
0.116659
0.119054
0.122387
0.125633
0.127286
0.125933
0.123035
0.120093
0.118116
0.117394
0.117099
0.115442
0.110636
0.102414
0.0922684
0.0780499
0.0602457
0.0397935
0.00577099
0.00622704
0.0443195
0.0655431
0.0841872
0.0991112
0.109632
0.117973
0.123052
0.124929
0.125408
0.126351
0.128646
0.132013
0.135391
0.137142
0.135725
0.132728
0.129777
0.127915
0.127357
0.127119
0.125277
0.120058
0.111523
0.100735
0.0854965
0.0664793
0.0448039
0.00622052
0.0269004
0.0493835
0.0722974
0.0922665
0.108221
0.119415
0.127959
0.133413
0.135469
0.135898
0.136685
0.138876
0.142269
0.145768
0.147609
0.146135
0.143049
0.140101
0.138361
0.137965
0.137784
0.135774
0.130193
0.121455
0.109957
0.0936387
0.0732332
0.0498251
0.0268947
0.0288319
0.054674
0.0795898
0.101064
0.118126
0.130059
0.13871
0.14448
0.14669
0.147061
0.147694
0.149782
0.153197
0.156807
0.158731
0.157203
0.15404
0.151105
0.149486
0.149249
0.149128
0.146976
0.141092
0.13225
0.119979
0.102506
0.0805415
0.0550964
0.0288437
0.0315113
0.0603965
0.0875484
0.110677
0.128905
0.14161
0.150269
0.15629
0.158624
0.15893
0.159412
0.161403
0.164838
0.168551
0.170551
0.168974
0.165745
0.162826
0.161325
0.161241
0.161185
0.158917
0.152794
0.143956
0.130883
0.112187
0.0885065
0.0607727
0.0315172
0.0348082
0.0667451
0.0963291
0.121224
0.140657
0.154119
0.162672
0.168878
0.171304
0.171539
0.171879
0.173779
0.177233
0.181043
0.183113
0.181496
0.178207
0.175303
0.173913
0.173976
0.173988
0.171633
0.165338
0.15662
0.14276
0.122803
0.0972937
0.0670645
0.0347834
0.038691
0.0738649
0.106072
0.132825
0.153473
0.167639
0.175962
0.182284
0.18477
0.184929
0.185136
0.186954
0.190429
0.19433
0.196469
0.194816
0.19147
0.188577
0.18729
0.187493
0.187582
0.185169
0.178768
0.170292
0.155698
0.134467
0.107046
0.0741296
0.0386152
0.0431531
0.0818552
0.116891
0.145585
0.167442
0.182238
0.190316
0.196589
0.199079
0.199149
0.199228
0.200973
0.204473
0.208465
0.210672
0.208984
0.205581
0.202692
0.2015
0.201843
0.202029
0.19963
0.193337
0.185039
0.169782
0.147284
0.117876
0.0820742
0.0430074
0.0481909
0.0907857
0.128879
0.159596
0.182647
0.197996
0.20602
0.211926
0.214307
0.214254
0.214206
0.215887
0.219419
0.223508
0.225793
0.224059
0.220589
0.217696
0.216593
0.217081
0.217402
0.21513
0.209234
0.200945
0.185095
0.16135
0.129877
0.0909711
0.0479578
0.0537982
0.100711
0.142122
0.174949
0.199174
0.215003
0.223011
0.228351
0.230515
0.2303
0.23012
0.231747
0.235327
0.239534
0.241871
0.240113
0.236554
0.233643
0.232619
0.233261
0.233761
0.23172
0.226403
0.218094
0.201725
0.176759
0.143135
0.100873
0.0534637
0.0599646
0.111672
0.156724
0.191734
0.217108
0.233338
0.241278
0.2459
0.247756
0.247338
0.247023
0.248615
0.252275
0.25658
0.258986
0.257184
0.253548
0.250591
0.249635
0.250435
0.251155
0.249431
0.244838
0.236569
0.219766
0.193608
0.157754
0.111818
0.0595244
0.0666804
0.123707
0.172751
0.210046
0.236539
0.253079
0.260856
0.264617
0.26608
0.265422
0.264973
0.266562
0.270316
0.274744
0.277209
0.27537
0.27164
0.268613
0.267697
0.268657
0.269634
0.268309
0.264578
0.25645
0.239304
0.211985
0.173793
0.123839
0.0661461
0.073936
0.136857
0.19031
0.230007
0.257567
0.274309
0.281803
0.284563
0.28555
0.284615
0.284045
0.285673
0.289535
0.29408
0.296593
0.294726
0.290909
0.287811
0.286878
0.287988
0.28926
0.288418
0.285689
0.277821
0.260439
0.232
0.191351
0.136975
0.0733271
0.0817191
0.151163
0.209446
0.251741
0.280298
0.297116
0.304195
0.305817
0.306241
0.304997
0.304347
0.306009
0.309992
0.314641
0.317201
0.315308
0.311413
0.308226
0.307288
0.308507
0.310109
0.309843
0.308247
0.30077
0.283279
0.253783
0.210479
0.151263
0.081072
0.0900333
0.166667
0.230199
0.275329
0.304869
0.321607
0.328121
0.328495
0.328257
0.326698
0.325921
0.327636
0.331733
0.33649
0.3391
0.337184
0.333206
0.329928
0.328973
0.330338
0.332284
0.332707
0.332343
0.3254
0.307937
0.277417
0.231225
0.166741
0.0893709
0.0988591
0.183413
0.25264
0.300824
0.331446
0.347944
0.353713
0.352721
0.35172
0.349743
0.348835
0.350593
0.354818
0.359694
0.362358
0.36042
0.356346
0.352963
0.351991
0.35353
0.355919
0.357104
0.358098
0.351863
0.334587
0.302954
0.25366
0.183452
0.0981923
0.108174
0.201461
0.276844
0.328252
0.359989
0.376238
0.381121
0.37853
0.376623
0.37418
0.373115
0.374933
0.379311
0.384323
0.387047
0.385084
0.380896
0.377381
0.376375
0.3781
0.380998
0.383218
0.385661
0.380262
0.363201
0.330422
0.27786
0.201455
0.107498
0.117962
0.220865
0.302896
0.35765
0.390493
0.406405
0.410277
0.406355
0.403043
0.400023
0.3988
0.40071
0.405274
0.410446
0.413237
0.411241
0.406917
0.403236
0.402165
0.404076
0.407567
0.411229
0.414956
0.410538
0.39378
0.359855
0.303897
0.220798
0.117253
0.128199
0.241668
0.330881
0.389089
0.422946
0.438385
0.441094
0.43582
0.430924
0.427291
0.425931
0.427974
0.432768
0.438126
0.440988
0.43895
0.434467
0.430583
0.429406
0.431483
0.435606
0.440889
0.44593
0.44264
0.426309
0.391318
0.33185
0.24152
0.127423
0.138859
0.26388
0.360879
0.422654
0.457397
0.472158
0.473519
0.466817
0.460254
0.456007
0.454544
0.456776
0.461845
0.467414
0.470351
0.468265
0.463601
0.459473
0.45814
0.460351
0.465122
0.472087
0.478524
0.476543
0.460833
0.424887
0.361791
0.263637
0.137981
0.149914
0.287497
0.392922
0.45843
0.493917
0.507774
0.507585
0.499354
0.491107
0.486211
0.484681
0.48716
0.492557
0.498362
0.501374
0.499238
0.494371
0.489951
0.488401
0.490706
0.496165
0.50482
0.51276
0.512287
0.497414
0.460638
0.393753
0.287154
0.148903
0.161328
0.312511
0.427005
0.496444
0.532577
0.545296
0.543341
0.533457
0.523485
0.517916
0.51637
0.519164
0.524941
0.531034
0.534136
0.531938
0.526813
0.522048
0.520207
0.522555
0.528708
0.539109
0.548679
0.549924
0.53611
0.498606
0.427739
0.312066
0.160161
0.173057
0.338902
0.463081
0.536653
0.573384
0.584778
0.580843
0.569171
0.557386
0.551163
0.549659
0.552852
0.559116
0.565457
0.568616
0.566387
0.56105
0.555835
0.553608
0.555959
0.562745
0.574987
0.586327
0.589498
0.576934
0.53876
0.463714
0.338361
0.171717
0.185047
0.366628
0.501095
0.578967
0.616251
0.626175
0.620107
0.606526
0.592815
0.58607
0.58467
0.588352
0.595031
0.602054
0.605543
0.603026
0.597006
0.591406
0.588735
0.591005
0.598483
0.612478
0.625713
0.630969
0.619808
0.581017
0.501625
0.366001
0.183528
0.197243
0.395618
0.54096
0.62327
0.661044
0.669372
0.661039
0.645456
0.63021
0.622618
0.6214
0.625552
0.633126
0.640964
0.64467
0.641965
0.635184
0.628636
0.625529
0.627638
0.636071
0.651518
0.666745
0.674222
0.664599
0.625262
0.541388
0.394918
0.19555
0.209583
0.425764
0.582535
0.669411
0.707597
0.714196
0.703489
0.685847
0.669263
0.660676
0.659696
0.664506
0.673425
0.681884
0.685772
0.682903
0.675518
0.667691
0.663833
0.665727
0.675225
0.691991
0.709272
0.719084
0.71114
0.67134
0.582861
0.425004
0.207735
0.222004
0.456928
0.625626
0.717183
0.755712
0.760459
0.747287
0.727548
0.709729
0.700077
0.699377
0.705641
0.715618
0.72465
0.728717
0.725677
0.717718
0.70885
0.703624
0.705254
0.715735
0.73374
0.753115
0.765364
0.759227
0.719041
0.62585
0.456125
0.220029
0.234435
0.488939
0.669985
0.766314
0.805137
0.807943
0.792248
0.770402
0.751424
0.741242
0.741082
0.748558
0.759529
0.769148
0.773401
0.770171
0.761616
0.751754
0.745366
0.7465
0.757427
0.776601
0.798083
0.812834
0.808601
0.768091
0.670108
0.48811
0.23237
0.246799
0.52159
0.715309
0.816472
0.855552
0.856372
0.838141
0.814226
0.794185
0.783826
0.784378
0.793039
0.805029
0.815268
0.819717
0.816277
0.807088
0.796201
0.78864
0.789071
0.800141
0.820388
0.843941
0.861214
0.85894
0.818154
0.715336
0.520752
0.244685
0.259022
0.554638
0.761238
0.867259
0.906575
0.905404
0.884677
0.858785
0.837814
0.827531
0.828981
0.838903
0.851971
0.862869
0.867522
0.863856
0.853991
0.842013
0.833185
0.83271
0.843686
0.864867
0.890397
0.910157
0.909858
0.868836
0.761177
0.5538
0.256898
0.271025
0.587797
0.807353
0.91822
0.957768
0.954641
0.931509
0.903781
0.88206
0.872092
0.874639
0.885938
0.900154
0.911747
0.916615
0.912711
0.902129
0.888981
0.878758
0.87717
0.887814
0.90974
0.9371
0.959258
0.960914
0.919681
0.80721
0.586961
0.268923
0.282728
0.620748
0.853177
0.968833
1.00863
1.00363
0.978233
0.948862
0.926618
0.917216
0.921071
0.933873
0.949306
0.961625
0.966719
0.962569
0.951232
0.936835
0.925082
0.922168
0.932225
0.954658
0.983645
1.00806
1.0116
0.970166
0.85295
0.619904
0.280675
0.29405
0.653136
0.898182
1.01852
1.05858
1.05185
1.02439
0.993625
0.971129
0.962566
0.967943
0.982376
0.999087
1.01216
1.01749
1.01309
1.00096
0.985247
0.971832
0.967373
0.976563
0.999216
1.02957
1.05605
1.06136
1.0197
0.897859
0.652263
0.292064
0.304909
0.684571
0.941788
1.06663
1.10702
1.09871
1.06946
1.0376
1.01517
1.00774
1.01486
1.03105
1.04909
1.06294
1.06851
1.06385
1.05092
1.03382
1.01862
1.01239
1.02041
1.04295
1.07436
1.10264
1.10955
1.06764
0.94135
0.683646
0.302998
0.315221
0.714637
0.983371
1.11248
1.15324
1.1436
1.11285
1.08027
1.05826
1.05228
1.06135
1.07941
1.09883
1.11346
1.11928
1.11436
1.1006
1.08209
1.06499
1.05675
1.06327
1.08533
1.11743
1.14721
1.1555
1.11327
0.982791
0.713635
0.313386
0.324904
0.742891
1.02227
1.15534
1.19653
1.1858
1.15394
1.12103
1.09984
1.09563
1.10687
1.12689
1.14772
1.16314
1.1692
1.16403
1.14945
1.12949
1.11038
1.09992
1.1046
1.12578
1.15817
1.18906
1.19846
1.15587
1.02152
0.741784
0.323135
0.333872
0.76887
1.0578
1.19443
1.2361
1.2246
1.19203
1.15926
1.1393
1.13718
1.1508
1.17286
1.19511
1.21131
1.21759
1.21216
1.19678
1.17538
1.15417
1.14127
1.14378
1.16366
1.19587
1.22745
1.23766
1.19465
1.05684
0.767635
0.332156
0.342039
0.792106
1.08926
1.22897
1.27116
1.25922
1.22641
1.19426
1.17597
1.17627
1.19243
1.21659
1.24024
1.25718
1.26367
1.25801
1.24186
1.21901
1.19564
1.18012
1.18013
1.19828
1.22983
1.26164
1.27231
1.22884
1.08806
0.790719
0.34036
0.349319
0.812133
1.11594
1.25815
1.3009
1.28888
1.25633
1.22531
1.20914
1.21215
1.23099
1.25727
1.28228
1.29992
1.3066
1.30072
1.28383
1.25957
1.23401
1.21573
1.21295
1.22893
1.2593
1.29083
1.30161
1.25764
1.11448
0.810574
0.347662
0.355625
0.828496
1.13719
1.28123
1.32454
1.31281
1.28103
1.25167
1.23803
1.24403
1.26566
1.29403
1.32033
1.3386
1.34544
1.33936
1.32179
1.29618
1.26845
1.2473
1.24146
1.25484
1.28351
1.31427
1.32478
1.28031
1.13543
0.826755
0.353981
0.360872
0.840772
1.15237
1.29746
1.34131
1.33025
1.29976
1.27256
1.26187
1.2711
1.29556
1.32595
1.35343
1.37225
1.37922
1.37297
1.35479
1.3279
1.29808
1.27401
1.26488
1.27525
1.30173
1.3312
1.34108
1.29613
1.1503
0.838851
0.359239
0.364978
0.848591
1.16093
1.30623
1.35055
1.3405
1.3118
1.28723
1.27985
1.29249
1.31978
1.35206
1.3806
1.39988
1.40695
1.40054
1.38182
1.35379
1.32198
1.29501
1.28239
1.28941
1.31324
1.34093
1.34983
1.30449
1.15857
0.846508
0.36336
0.367863
0.851652
1.16245
1.307
1.35166
1.34292
1.31644
1.29488
1.29111
1.30734
1.33741
1.37143
1.40086
1.42049
1.4276
1.42107
1.4019
1.37289
1.33925
1.30943
1.29316
1.29653
1.31733
1.34283
1.35047
1.30485
1.15981
0.849436
0.366271
0.369455
0.849737
1.1566
1.29936
1.34416
1.33695
1.31297
1.29467
1.29505
1.31476
1.34754
1.3831
1.41324
1.43312
1.44022
1.43359
1.41409
1.38428
1.34901
1.31639
1.29643
1.29577
1.31333
1.33635
1.34252
1.29685
1.15373
0.847425
0.367901
0.369689
0.84272
1.14322
1.28309
1.32772
1.3221
1.30072
1.28859
1.29284
1.31389
1.3493
1.38621
1.41686
1.43685
1.4439
1.43717
1.4175
1.38709
1.35039
1.31507
1.29365
1.28908
1.30054
1.321
1.32565
1.28026
1.14017
0.84035
0.368187
0.36851
0.830573
1.1223
1.25811
1.30212
1.29797
1.28223
1.27551
1.28328
1.30604
1.34191
1.37997
1.41092
1.43088
1.43787
1.43106
1.41131
1.38057
1.34263
1.30667
1.2836
1.27546
1.28156
1.2964
1.29967
1.255
1.11912
0.828182
0.367072
0.365874
0.813376
1.09399
1.22452
1.26733
1.26589
1.25733
1.25513
1.26609
1.29048
1.32469
1.36369
1.39472
1.41461
1.4215
1.41465
1.39488
1.36398
1.32504
1.29067
1.26599
1.25463
1.25625
1.26403
1.26452
1.22119
1.09073
0.810997
0.364511
0.361748
0.79131
1.05859
1.18258
1.22355
1.22901
1.22572
1.22733
1.2411
1.26693
1.30034
1.33674
1.36779
1.38756
1.39437
1.38749
1.36775
1.33677
1.30039
1.2668
1.24066
1.22645
1.22427
1.22688
1.22045
1.17908
1.0553
0.788976
0.360469
0.356111
0.764657
1.01657
1.13284
1.17588
1.18662
1.18731
1.19214
1.20832
1.23531
1.26798
1.30111
1.32984
1.34948
1.35618
1.34931
1.32964
1.30092
1.26778
1.23496
1.20763
1.19097
1.18556
1.18428
1.17284
1.12924
1.01329
0.762393
0.354922
0.348952
0.733783
0.968593
1.07868
1.12469
1.13856
1.14222
1.14977
1.16793
1.1957
1.22746
1.25822
1.28388
1.30115
1.30704
1.30091
1.28356
1.25787
1.22708
1.19519
1.16704
1.14838
1.14025
1.13605
1.12167
1.07537
0.965369
0.731613
0.347855
0.340272
0.699171
0.916364
1.02332
1.06947
1.0849
1.09075
1.10054
1.12022
1.14826
1.17893
1.20776
1.23125
1.24684
1.25219
1.24655
1.23083
1.20729
1.17843
1.14762
1.11922
1.099
1.08862
1.08227
1.06647
1.02021
0.913549
0.697119
0.339267
0.330082
0.662315
0.864661
0.96581
1.01009
1.0259
1.03331
1.04487
1.0656
1.09332
1.12271
1.14979
1.17154
1.18585
1.19076
1.18551
1.17106
1.14923
1.12212
1.09259
1.06452
1.04323
1.03109
1.02319
1.0071
0.962869
0.862154
0.660586
0.32917
0.318425
0.625804
0.812327
0.905719
0.946648
0.961966
0.970423
0.983245
1.00449
1.03138
1.05926
1.0846
1.10481
1.11804
1.12258
1.11766
1.10427
1.08398
1.05859
1.03058
1.00336
0.981563
0.968156
0.959241
0.943706
0.902919
0.810061
0.624323
0.317615
0.306417
0.588908
0.758691
0.842897
0.879431
0.893605
0.902619
0.916246
0.937386
0.963018
0.98912
1.01266
1.03137
1.0436
1.0478
1.04319
1.03079
1.01199
0.988393
0.962158
0.93622
0.914566
0.900361
0.890915
0.876563
0.840238
0.756628
0.587625
0.30574
0.293864
0.55113
0.703388
0.777405
0.808819
0.82136
0.830484
0.844429
0.864882
0.888855
0.912923
0.934535
0.951728
0.962983
0.966846
0.962558
0.951119
0.93383
0.912148
0.887947
0.863704
0.842797
0.828286
0.818758
0.806066
0.774897
0.701505
0.550008
0.2933
0.280533
0.512116
0.646247
0.709424
0.735257
0.745798
0.75463
0.768395
0.787627
0.809561
0.831354
0.850905
0.86651
0.876769
0.880291
0.876339
0.86589
0.850175
0.830541
0.80862
0.786454
0.766846
0.75254
0.743338
0.732664
0.707086
0.644528
0.511129
0.280063
0.266176
0.4716
0.587211
0.639211
0.659223
0.667503
0.675685
0.688773
0.706305
0.725857
0.745157
0.762516
0.776457
0.785682
0.788854
0.785259
0.775842
0.761778
0.744321
0.724899
0.705152
0.687313
0.673753
0.665234
0.656833
0.637063
0.585652
0.470727
0.265783
0.25052
0.429354
0.52629
0.567054
0.581208
0.587065
0.59429
0.606223
0.621644
0.638523
0.655147
0.670202
0.682408
0.690558
0.693367
0.690152
0.681811
0.669471
0.654306
0.637564
0.620526
0.604869
0.592544
0.585028
0.579058
0.565117
0.524886
0.428579
0.250185
0.233242
0.38514
0.463505
0.493257
0.501702
0.505071
0.511082
0.521439
0.53442
0.548397
0.562212
0.57488
0.585297
0.592338
0.594772
0.591956
0.584731
0.574174
0.561385
0.547453
0.533349
0.520214
0.509534
0.503294
0.499819
0.491545
0.462256
0.384449
0.232945
0.213934
0.338663
0.398877
0.418151
0.421211
0.42212
0.4267
0.435128
0.445445
0.456371
0.4673
0.477541
0.486142
0.492052
0.494102
0.491697
0.485617
0.476877
0.466507
0.45546
0.444433
0.43403
0.425362
0.420614
0.419611
0.416675
0.397783
0.338045
0.21365
0.191996
0.289434
0.332344
0.342072
0.340258
0.338789
0.341761
0.348005
0.355496
0.363341
0.371376
0.379195
0.385981
0.390754
0.392413
0.39043
0.385506
0.37859
0.370638
0.362482
0.354569
0.347019
0.340635
0.33756
0.338948
0.340841
0.331407
0.28888
0.191699
0.166521
0.236844
0.264031
0.265768
0.259804
0.255967
0.257068
0.260945
0.265496
0.270244
0.275442
0.28089
0.285877
0.289507
0.29077
0.289219
0.285462
0.280365
0.274789
0.269461
0.264647
0.260071
0.256153
0.255014
0.258789
0.264793
0.263252
0.236356
0.166181
0.135389
0.17881
0.193032
0.189583
0.180885
0.174687
0.173375
0.174607
0.176207
0.1779
0.180252
0.183282
0.186438
0.188903
0.189777
0.188673
0.186105
0.18285
0.179691
0.177212
0.175462
0.173879
0.172689
0.17402
0.180179
0.188876
0.192417
0.17841
0.134986
0.113263
0.134479
0.140147
0.13444
0.124098
0.114756
0.109438
0.107059
0.105405
0.103832
0.103002
0.103318
0.104499
0.105783
0.10627
0.10557
0.104198
0.102914
0.102468
0.103194
0.104753
0.10649
0.108986
0.114354
0.123659
0.133968
0.139704
0.13424
0.112719
0.00495407
0.00668
0.00813501
0.00912265
0.00962144
0.00959999
0.00937986
0.00909611
0.0088967
0.00870072
0.00849912
0.00830501
0.00813162
0.00801309
0.00798197
0.00806286
0.00820333
0.00837702
0.00857889
0.00880938
0.00904488
0.00927988
0.0095118
0.00970325
0.00968054
0.00919557
0.00818858
0.0067247
0.00492218
0.0065197
0.005788
0.00658573
0.00742378
0.00789175
0.00792342
0.0077333
0.00749848
0.00730531
0.00714577
0.00702087
0.00691817
0.00683511
0.00679073
0.00678762
0.00682874
0.00689562
0.0069847
0.00710853
0.00726877
0.0074715
0.007678
0.00790558
0.00809375
0.00804711
0.0075077
0.00665208
0.0058387
0.00649555
0.00653479
0.00554249
0.00633309
0.00731459
0.00784377
0.00786296
0.00763222
0.00730351
0.00702726
0.00681329
0.0066637
0.00655602
0.00647686
0.00643384
0.00643382
0.00646514
0.00652622
0.00661879
0.00675136
0.00694965
0.00717638
0.00747887
0.00790056
0.00831673
0.0080755
0.00746273
0.00640226
0.00559612
0.00654293
0.00660345
0.00565799
0.00676897
0.00806045
0.00877549
0.00881055
0.00867548
0.00804517
0.00759483
0.00723339
0.00700771
0.00683143
0.00670623
0.00661293
0.00662864
0.00665354
0.00675609
0.00689155
0.00712725
0.00761408
0.00794422
0.00833459
0.00922207
0.0112152
0.00944891
0.00853775
0.00685112
0.00571246
0.00663172
0.00671021
0.00607055
0.00771971
0.00952026
0.0106933
0.010869
0.0122644
0.0101487
0.00917335
0.00844509
0.00822599
0.00794415
0.00771037
0.00740071
0.00758676
0.00746848
0.00765429
0.00785365
0.00834737
0.0105634
0.0109551
0.0104311
0.011225
0.0133118
0.0116633
0.0119768
0.00788789
0.00612903
0.00674973
0.00683822
0.00671512
0.00911893
0.0117425
0.0149048
0.0156187
0.0152811
0.0140338
0.0130676
0.0109564
0.0117542
0.0113981
0.0108062
0.00903651
0.010643
0.00921498
0.00952028
0.0097689
0.0104561
0.0129008
0.012168
0.0141242
0.0148899
0.0142894
0.015681
0.0141116
0.0092965
0.00677805
0.00688246
0.00702381
0.00755374
0.0110978
0.0159858
0.0165517
0.0186475
0.0183517
0.0168481
0.0162843
0.014939
0.0145287
0.0142717
0.0124529
0.0116942
0.0134844
0.0129979
0.0121989
0.0139296
0.0133251
0.0157509
0.0147616
0.015534
0.0166495
0.0171887
0.018467
0.0146899
0.0111068
0.00760766
0.00707591
0.00725873
0.00851678
0.0129532
0.0186194
0.0207522
0.0213531
0.0215117
0.0201767
0.0193445
0.0185386
0.0178824
0.0172151
0.0165533
0.0160692
0.0166504
0.0152162
0.0153379
0.0175834
0.0177331
0.0191533
0.0195072
0.0189459
0.0212239
0.0215945
0.020967
0.016817
0.0127588
0.00855229
0.00731508
0.0075294
0.00953254
0.0147348
0.0202753
0.0236475
0.0247057
0.0246916
0.0237549
0.0229241
0.0222335
0.0214794
0.0208436
0.0204293
0.020047
0.020035
0.019799
0.0200363
0.0210309
0.0215868
0.0222999
0.0230338
0.0238053
0.0248844
0.0250351
0.023866
0.0192569
0.01592
0.00961778
0.00758996
0.00782085
0.0105844
0.0174869
0.0213727
0.0258107
0.0276767
0.0278713
0.0270771
0.0264817
0.0259164
0.0252772
0.0247962
0.0244655
0.0241904
0.0241154
0.0241806
0.0244339
0.0250018
0.0255283
0.0260735
0.0267972
0.0274895
0.0282028
0.0281731
0.0267933
0.0218275
0.0166952
0.0106483
0.00788771
0.00811983
0.0115497
0.0179395
0.0236901
0.0285704
0.0302716
0.0305346
0.0302907
0.0300512
0.0296731
0.0292992
0.0290161
0.0287947
0.0286276
0.0285957
0.0287048
0.0289235
0.0292591
0.0296215
0.0299889
0.0304705
0.0308227
0.031207
0.0310755
0.0296952
0.0254565
0.0193788
0.0117065
0.00819323
0.0084145
0.0125205
0.0193535
0.0270697
0.0315731
0.0333549
0.0336743
0.0336
0.0336059
0.0336049
0.0335056
0.0334618
0.0334094
0.0333749
0.0334038
0.0334757
0.0335995
0.0337303
0.0338647
0.0340389
0.0340899
0.034153
0.0342875
0.0340324
0.0323704
0.0279628
0.0212503
0.0127162
0.00849517
0.00869996
0.0134505
0.0209912
0.0295091
0.0344869
0.0365829
0.0370149
0.0370413
0.037244
0.0376286
0.0378435
0.0380806
0.0382525
0.0383841
0.0384835
0.0384862
0.0384642
0.038368
0.0382249
0.038081
0.0377852
0.0376564
0.0376618
0.0372262
0.0351297
0.0302416
0.0228822
0.0136713
0.00878786
0.00897983
0.0143717
0.0236543
0.0319006
0.037455
0.039958
0.0405594
0.0406673
0.0410098
0.0416752
0.0423142
0.0428439
0.0432828
0.0436122
0.0437934
0.0437102
0.0435022
0.0431527
0.0427471
0.0421751
0.0416211
0.0413595
0.0412714
0.0406318
0.0380763
0.0325034
0.0244136
0.0146023
0.00907137
0.00926524
0.0152915
0.0254896
0.0342385
0.0404886
0.0434612
0.0442844
0.0444911
0.0449464
0.0458366
0.04691
0.0477435
0.0484797
0.0490327
0.0493074
0.0491272
0.0487033
0.0480723
0.0473488
0.0463975
0.0456357
0.0452594
0.0450594
0.0441812
0.0411393
0.0348239
0.0259993
0.0155829
0.00936381
0.00955803
0.0163245
0.0271936
0.0365998
0.0435855
0.0470893
0.0481949
0.0485302
0.0490867
0.0501559
0.0515494
0.0527835
0.0538345
0.0546309
0.0550097
0.0547241
0.054064
0.0531476
0.0520264
0.0507868
0.0498566
0.0493732
0.0490323
0.047861
0.0442831
0.0372337
0.0277546
0.0169635
0.0096893
0.00993861
0.0174718
0.0290115
0.0390747
0.0467799
0.0508612
0.0523069
0.0528047
0.0534588
0.0546705
0.0563267
0.0580156
0.0593446
0.0603972
0.0608894
0.0604911
0.0595792
0.0583909
0.0568497
0.0553725
0.0543068
0.0537196
0.0532052
0.0516854
0.0475277
0.0397615
0.0296136
0.0179542
0.0100777
0.0104757
0.0188164
0.0310736
0.0417256
0.0500998
0.0547887
0.0566279
0.0573259
0.0580821
0.059407
0.0612727
0.0633092
0.0649992
0.0663231
0.0669369
0.0664198
0.0652426
0.0636959
0.061845
0.0601778
0.0590039
0.0583105
0.057588
0.0556678
0.0509008
0.0424652
0.0317096
0.0192872
0.0106182
0.0112473
0.0207752
0.033452
0.0445924
0.0535679
0.058881
0.0611631
0.0621021
0.0629718
0.0643878
0.0664161