/*--------------------------------*- C++ -*----------------------------------*\
| =========                 |                                                 |
| \\      /  F ield         | OpenFOAM: The Open Source CFD Toolbox           |
|  \\    /   O peration     | Version:  5.x                                   |
|   \\  /    A nd           | Web:      www.OpenFOAM.org                      |
|    \\/     M anipulation  |                                                 |
\*---------------------------------------------------------------------------*/
/*   Windows 32 and 64 bit porting by blueCAPE: http://www.bluecape.com.pt   *\
|  Based on Windows porting (2.0.x v4) by Symscape: http://www.symscape.com   |
\*---------------------------------------------------------------------------*/
FoamFile
{
    version     2.0;
    format      ascii;
    class       volScalarField;
    location    "3.6";
    object      epsilon;
}
// * * * * * * * * * * * * * * * * * * * * * * * * * * * * * * * * * * * * * //

dimensions      [0 2 -3 0 0 0 0];

internalField   nonuniform List<scalar> 
400055
(
0.00455668
0.00520588
0.00576591
0.00625668
0.00674062
0.00721207
0.00759386
0.00785282
0.00800482
0.00808737
0.00810104
0.00810008
0.00808029
0.00809775
0.00812231
0.00810045
0.00810179
0.00811174
0.00814064
0.0081355
0.00806141
0.00788365
0.00763262
0.00725009
0.00679876
0.00633487
0.005862
0.0052959
0.00460408
0.00329074
0.00405986
0.00452574
0.00487385
0.00520737
0.00553209
0.0057924
0.00595641
0.00601515
0.00608711
0.00609773
0.00610111
0.00610284
0.00612492
0.00612686
0.00607896
0.00610761
0.00610819
0.00612845
0.00612535
0.00609697
0.005947
0.00581669
0.00556002
0.00524663
0.0049265
0.00458888
0.00411945
0.00333185
0.00344818
0.00437359
0.00490796
0.00528587
0.00563885
0.00596949
0.00619951
0.0266276
0.00596839
0.0266041
0.0268607
0.0269142
0.0269919
0.0272012
0.0270517
0.00595686
0.0266946
0.0267639
0.0270857
0.0271677
0.0275385
0.00619949
0.00622259
0.00600262
0.00568397
0.00534234
0.0049705
0.00442713
0.00347784
0.00356265
0.00455202
0.005135
0.0055484
0.00592304
0.00621349
0.0266969
0.00611302
0.0268569
0.0276626
0.0277407
0.0278902
0.0278743
0.0281096
0.0280628
0.00608774
0.00614212
0.00615686
0.0277512
0.0279044
0.0276815
0.00606443
0.0268724
0.00625025
0.00597312
0.00560776
0.0051975
0.00460411
0.00358476
0.0036522
0.00466202
0.00528214
0.00573359
0.00609917
0.00605037
0.0269657
0.00616595
0.0279168
0.0285041
0.00614217
0.0284708
0.00613638
0.00615069
0.0287739
0.00624742
0.0265712
0.0265467
0.0268407
0.00615254
0.0267765
0.00617748
0.0271628
0.00608682
0.00615567
0.00579365
0.00534307
0.00471333
0.00367046
0.00372819
0.00474098
0.00539337
0.00587899
0.00598568
0.00608012
0.0274285
0.0277055
0.0287818
0.0292812
0.0061713
0.0291134
0.00614904
0.0278732
0.0293913
0.00623419
0.0277131
0.0277406
0.0276632
0.00620388
0.0275207
0.027028
0.0278006
0.0265529
0.00618825
0.00593823
0.00545191
0.00479095
0.00374512
0.00379796
0.00480998
0.00549395
0.00601792
0.00605085
0.00619151
0.00620816
0.028682
0.0274
0.0277056
0.0266171
0.0277044
0.0265981
0.027187
0.0277928
0.0265343
0.0277947
0.027849
0.0277784
0.0269001
0.0276517
0.0282256
0.0274412
0.00625352
0.00625255
0.00607632
0.00555058
0.00485808
0.00381498
0.0038663
0.0048804
0.00559693
0.00615675
0.00617411
0.027025
0.0264607
0.0277239
0.0277196
0.0280514
0.0278297
0.0281317
0.0280186
0.0278625
0.0280741
0.0275949
0.0283791
0.0285088
0.0285427
0.0280859
0.028246
0.0283833
0.0273437
0.0271173
0.027011
0.00620557
0.0056528
0.00492655
0.00388413
0.00393637
0.00495763
0.00570685
0.0265224
0.0267667
0.0281914
0.0274765
0.0284301
0.029
0.0294477
0.0295525
0.0295828
0.0297659
0.0293744
0.0294241
0.0293257
0.0297669
0.0299916
0.0300895
0.029775
0.0294829
0.0290534
0.0278282
0.0271207
0.00623089
0.00614869
0.00575987
0.00500209
0.00395528
0.00401009
0.0050436
0.00582587
0.0272358
0.0277473
0.0284696
0.0287042
0.0299395
0.030943
0.0315829
0.0318461
0.0318042
0.0319897
0.0315761
0.0315633
0.0316581
0.0319334
0.0322403
0.0323545
0.0320358
0.031412
0.0304669
0.0289327
0.0278044
0.0266517
0.00611601
0.00587384
0.00508676
0.00403012
0.00408852
0.0051384
0.00595368
0.0270775
0.0279394
0.0290991
0.0302648
0.0319852
0.033423
0.0343244
0.0347265
0.0347053
0.0348108
0.0344422
0.0344095
0.0346004
0.0348269
0.0351811
0.0352703
0.0348596
0.0339377
0.0325144
0.0305863
0.0289918
0.0275554
0.00618595
0.00600296
0.00518083
0.00410961
0.00417209
0.00524118
0.00609093
0.0270554
0.0285006
0.030235
0.0321997
0.0344712
0.0363748
0.0376013
0.0381815
0.0382417
0.0382818
0.0379758
0.0379442
0.0381783
0.0384072
0.0387635
0.0387843
0.0382142
0.0369719
0.0350656
0.0326573
0.0304884
0.0286401
0.0267447
0.00614062
0.00528291
0.00419414
0.00426084
0.0053505
0.00623936
0.0276418
0.0295264
0.0318324
0.0344999
0.0373476
0.0397529
0.0413629
0.0421814
0.0423786
0.0424082
0.0421746
0.0421582
0.0424043
0.0426409
0.0429496
0.042851
0.0420593
0.0404511
0.0380366
0.0350855
0.0322874
0.0299079
0.0277042
0.00621753
0.00538399
0.00428364
0.00435455
0.00545659
0.0267627
0.0285875
0.0309408
0.033819
0.0371412
0.0405806
0.0435204
0.0455654
0.0466865
0.047079
0.0471667
0.0470223
0.0470343
0.0472715
0.047493
0.0477017
0.047426
0.0463521
0.0443284
0.0413781
0.0378471
0.0344053
0.0314403
0.0288391
0.0267697
0.00549449
0.00437823
0.00445358
0.00557104
0.0269714
0.0297494
0.0326687
0.0361418
0.0401039
0.0441478
0.0476473
0.0501693
0.0516536
0.0523012
0.0525176
0.0524878
0.0525424
0.052754
0.0529232
0.0529784
0.0524656
0.0510521
0.0485698
0.0450618
0.0409298
0.0368395
0.0332503
0.0301123
0.0271227
0.00561251
0.0044782
0.00455844
0.00569552
0.0276623
0.0311462
0.0346746
0.038774
0.0433804
0.048039
0.0521137
0.0551464
0.0570482
0.058009
0.0584197
0.0585354
0.0586476
0.0588188
0.0588931
0.0587433
0.0579358
0.0561295
0.0531543
0.0490758
0.0443298
0.0395819
0.0353362
0.0316068
0.0279233
0.00573969
0.00458403
0.00466985
0.00583119
0.0286662
0.0327769
0.0369487
0.0417102
0.0469763
0.0522577
0.0569147
0.0604883
0.0628514
0.0641787
0.0648451
0.0651399
0.065325
0.0654416
0.0653776
0.0649717
0.063817
0.0615746
0.0580768
0.0534238
0.048055
0.0426324
0.037692
0.033314
0.0290038
0.00587803
0.00469647
0.00478881
0.00598024
0.0299177
0.0346474
0.0394991
0.0449613
0.0509091
0.0568208
0.062062
0.0661843
0.0690287
0.0707669
0.0717493
0.0722645
0.0725402
0.072585
0.0723335
0.0716183
0.0700741
0.0673767
0.0633498
0.0581232
0.0521246
0.046005
0.0403309
0.0352521
0.0303147
0.00603034
0.00481655
0.00491623
0.00614536
0.0314033
0.0367753
0.0423481
0.0485518
0.0552071
0.0617566
0.0675802
0.0722277
0.0755478
0.0777249
0.0790763
0.0798566
0.0802422
0.080195
0.0797055
0.0786337
0.076675
0.0735307
0.0689995
0.0632038
0.0565687
0.0497267
0.0432796
0.0374518
0.0318603
0.00620126
0.00494523
0.00504497
0.0267763
0.03319
0.0391983
0.045532
0.0525173
0.0599081
0.0671035
0.0734986
0.0786325
0.0824748
0.0850832
0.0867869
0.0878656
0.0883795
0.0882207
0.0874567
0.0860479
0.0836806
0.0800514
0.0750578
0.0687055
0.0614267
0.0538354
0.0465772
0.0399568
0.033711
0.027153
0.00507488
0.00518876
0.0281905
0.0352669
0.0419618
0.0490993
0.0569052
0.0650597
0.0729091
0.0798592
0.085538
0.0899098
0.0929653
0.0950389
0.0963762
0.0970058
0.0967496
0.0957521
0.0939922
0.0912038
0.0870646
0.0815681
0.0746769
0.0667473
0.0583797
0.0502733
0.0428139
0.035855
0.0285724
0.00521902
0.0053478
0.0298077
0.0376708
0.0451212
0.0531095
0.061773
0.070718
0.0792294
0.0867159
0.0929706
0.0978387
0.101337
0.103806
0.105442
0.106204
0.105834
0.104563
0.102432
0.0992316
0.0946227
0.0885851
0.0811746
0.0725872
0.0634174
0.0544268
0.046079
0.0383162
0.0301888
0.00537825
0.00552504
0.0316568
0.0404347
0.0487329
0.0576274
0.0671862
0.0769467
0.0861268
0.094131
0.100953
0.106283
0.110206
0.113077
0.115036
0.115945
0.115448
0.11388
0.111375
0.107785
0.102745
0.0961716
0.0882612
0.0790099
0.0690137
0.0591011
0.0498076
0.0411444
0.0320483
0.00555559
0.00572293
0.0337759
0.0436064
0.0528579
0.0627232
0.073217
0.083816
0.0936698
0.102173
0.109533
0.11529
0.119608
0.122875
0.125169
0.126235
0.125603
0.123727
0.120859
0.11691
0.111477
0.104396
0.0960046
0.0860852
0.0752397
0.0643647
0.0540593
0.0443895
0.0341901
0.00575365
0.00594362
0.0362113
0.0472429
0.057565
0.0684737
0.079944
0.0914021
0.101932
0.110916
0.118775
0.12492
0.129599
0.133246
0.135878
0.137107
0.136336
0.134152
0.13094
0.126669
0.120881
0.11333
0.104477
0.0938882
0.0821727
0.0702929
0.0589009
0.048107
0.0366565
0.00597458
0.00619109
0.0390491
0.0514136
0.0629321
0.0749637
0.0874533
0.0997874
0.110991
0.120436
0.128751
0.135246
0.140248
0.144251
0.147218
0.148614
0.147702
0.145216
0.141686
0.137132
0.131029
0.12305
0.113757
0.1025
0.0898973
0.0769689
0.0644091
0.0523643
0.0395311
0.00622225
0.0276359
0.0424649
0.0562021
0.0690488
0.0822876
0.0958388
0.109061
0.120932
0.130815
0.139539
0.146347
0.151632
0.155962
0.159255
0.16082
0.159767
0.156992
0.153173
0.148376
0.141996
0.133637
0.123926
0.112008
0.0985061
0.0844859
0.0706725
0.0572436
0.0429908
0.0278321
0.0296342
0.0463624
0.0616887
0.0760145
0.0905498
0.105203
0.119319
0.131843
0.142136
0.151221
0.158303
0.163831
0.168458
0.172064
0.173796
0.172607
0.169556
0.165483
0.160483
0.153863
0.145171
0.135073
0.122508
0.108101
0.0929477
0.0777903
0.0628254
0.0469374
0.0298312
0.0319115
0.0508042
0.0679725
0.0839408
0.0998666
0.11566
0.130666
0.143818
0.154485
0.163878
0.171198
0.176932
0.181823
0.185724
0.187623
0.186301
0.182994
0.178698
0.173533
0.16671
0.157739
0.14729
0.134103
0.118794
0.10247
0.0858742
0.0692089
0.0514307
0.0321107
0.0344752
0.0558541
0.0751623
0.0929526
0.110366
0.12733
0.143213
0.156959
0.16795
0.177595
0.185115
0.191019
0.196143
0.200323
0.202383
0.200935
0.19739
0.192905
0.187611
0.180622
0.171429
0.160678
0.146903
0.130707
0.113182
0.0950488
0.0765023
0.0565313
0.0346755
0.0373483
0.0615922
0.083377
0.103188
0.122189
0.140346
0.157079
0.171371
0.182626
0.192457
0.20014
0.206181
0.211508
0.215948
0.218165
0.216598
0.212835
0.20819
0.202801
0.195683
0.186334
0.175343
0.161029
0.143973
0.125224
0.105452
0.0848234
0.062316
0.0375463
0.0405652
0.0681096
0.0927463
0.114795
0.135486
0.154847
0.172389
0.187165
0.198608
0.208552
0.216359
0.222508
0.228011
0.232692
0.23506
0.233382
0.229421
0.224645
0.219188
0.21198
0.202552
0.191394
0.176604
0.158729
0.138744
0.117233
0.0943015
0.0688759
0.0407564
0.0441621
0.0755022
0.103408
0.127933
0.150412
0.17098
0.189275
0.204455
0.216
0.225969
0.233859
0.24009
0.245747
0.250651
0.253164
0.251382
0.247243
0.242359
0.236863
0.229607
0.220188
0.208948
0.19376
0.175121
0.1539
0.130548
0.105074
0.0763084
0.0443423
0.0481735
0.0838662
0.115502
0.142762
0.167129
0.188893
0.207869
0.22336
0.234914
0.244805
0.252733
0.259021
0.264814
0.269927
0.272578
0.270701
0.266399
0.261426
0.255916
0.248657
0.239353
0.228122
0.212629
0.193298
0.170851
0.14556
0.117284
0.084712
0.0483392
0.0526313
0.0932974
0.129175
0.159446
0.185802
0.208739
0.228309
0.244002
0.255466
0.26516
0.273077
0.279401
0.285314
0.290623
0.293407
0.291442
0.286991
0.281945
0.276442
0.269232
0.260165
0.249038
0.233346
0.213411
0.189761
0.162431
0.131075
0.0941837
0.0527797
0.0575641
0.103891
0.144569
0.178152
0.206593
0.230668
0.25073
0.266504
0.277778
0.287141
0.294991
0.30133
0.307353
0.31285
0.315761
0.313715
0.309126
0.304016
0.298541
0.291436
0.282743
0.271818
0.256047
0.235608
0.210791
0.181326
0.14659
0.104819
0.0576929
0.0629975
0.115741
0.161829
0.199041
0.229664
0.25483
0.275269
0.290991
0.30197
0.310858
0.318581
0.324916
0.331044
0.336721
0.339755
0.337635
0.332912
0.327745
0.322315
0.315376
0.307203
0.296583
0.280866
0.260038
0.234101
0.202405
0.163973
0.116713
0.0631043
0.0689531
0.128942
0.181097
0.222274
0.255174
0.281372
0.302058
0.317586
0.328161
0.336423
0.343957
0.350271
0.356502
0.362357
0.365512
0.363321
0.358467
0.353241
0.347873
0.341162
0.333659
0.323456
0.307934
0.286846
0.259849
0.225829
0.183365
0.129957
0.0690355
0.0754483
0.143584
0.202513
0.248007
0.283274
0.310434
0.331225
0.34641
0.356465
0.363948
0.371232
0.37751
0.383847
0.389884
0.393157
0.390897
0.385908
0.380619
0.375326
0.368903
0.362225
0.352553
0.337377
0.316172
0.288185
0.251753
0.204907
0.144644
0.0755041
0.082496
0.159758
0.226213
0.27639
0.314111
0.342152
0.362895
0.377576
0.386993
0.393546
0.400521
0.406754
0.413208
0.419432
0.422823
0.420495
0.415363
0.409998
0.404789
0.398712
0.393009
0.383988
0.369317
0.348148
0.319254
0.280326
0.228732
0.160863
0.0825231
0.0901047
0.177547
0.252324
0.307563
0.34782
0.376649
0.397181
0.411192
0.419853
0.425332
0.431942
0.438127
0.444713
0.451138
0.454648
0.45225
0.446962
0.441504
0.436383
0.430749
0.426116
0.417865
0.403866
0.382898
0.353192
0.311687
0.254971
0.1787
0.0901016
0.0982785
0.197032
0.280966
0.341653
0.384521
0.414036
0.434185
0.447357
0.455144
0.459628
0.465633
0.471758
0.478497
0.485141
0.488775
0.486303
0.480839
0.475264
0.470245
0.465304
0.461646
0.454283
0.441127
0.420533
0.390117
0.345962
0.28374
0.198232
0.0982442
0.107018
0.218284
0.312241
0.378767
0.424316
0.454408
0.473995
0.486157
0.492954
0.496508
0.50172
0.507775
0.514699
0.521585
0.52535
0.522797
0.517133
0.511411
0.506497
0.502425
0.499689
0.493328
0.481187
0.461146
0.430132
0.383259
0.315143
0.219534
0.106952
0.116318
0.241362
0.346234
0.41899
0.467284
0.497838
0.516684
0.527662
0.53336
0.536033
0.540324
0.54631
0.553457
0.560616
0.56452
0.561879
0.555985
0.550076
0.545267
0.542175
0.540321
0.535072
0.524118
0.504811
0.473314
0.423661
0.349264
0.242664
0.11622
0.126173
0.266312
0.383004
0.462377
0.513475
0.544375
0.5623
0.571929
0.576424
0.578254
0.581565
0.587499
0.594916
0.602386
0.606438
0.603699
0.597539
0.591399
0.586685
0.584609
0.583604
0.57957
0.569968
0.551573
0.519711
0.467223
0.386161
0.267669
0.126043
0.13657
0.293164
0.422577
0.508947
0.562906
0.594036
0.61087
0.618992
0.622192
0.623213
0.625629
0.631487
0.639235
0.64707
0.651287
0.648435
0.641959
0.635532
0.630999
0.62977
0.629582
0.626855
0.618762
0.601449
0.569339
0.513961
0.42586
0.294576
0.136408
0.147496
0.321922
0.464946
0.55868
0.615552
0.646806
0.66239
0.668866
0.670691
0.670937
0.672848
0.678432
0.686683
0.69515
0.699604
0.696584
0.68956
0.682682
0.678424
0.677684
0.678281
0.676939
0.670493
0.654421
0.622169
0.563852
0.46835
0.323391
0.147301
0.158931
0.352566
0.51006
0.611506
0.671346
0.702629
0.716824
0.721534
0.721925
0.721435
0.72312
0.72883
0.73769
0.746789
0.751482
0.748279
0.740686
0.733241
0.728877
0.728359
0.729702
0.729802
0.725122
0.710429
0.678132
0.616825
0.513578
0.354092
0.158701
0.17085
0.385049
0.557821
0.667306
0.730169
0.761404
0.774096
0.776949
0.775873
0.774697
0.776373
0.782499
0.7921
0.801853
0.806792
0.80339
0.79519
0.787046
0.782287
0.78178
0.783821
0.785394
0.782569
0.76937
0.737107
0.672758
0.561446
0.386629
0.170585
0.183226
0.419287
0.60808
0.725901
0.791847
0.822979
0.834087
0.835026
0.83248
0.830685
0.832534
0.839312
0.849779
0.860221
0.865416
0.861798
0.852947
0.843974
0.838584
0.837908
0.840578
0.843625
0.842711
0.83109
0.798919
0.731471
0.611804
0.42092
0.182925
0.196025
0.455165
0.660635
0.787054
0.856147
0.88715
0.896626
0.895635
0.891654
0.889329
0.891518
0.899145
0.910597
0.921774
0.927234
0.923386
0.913832
0.903904
0.89768
0.896671
0.899878
0.904362
0.905377
0.895381
0.863331
0.792726
0.664446
0.456847
0.195686
0.209208
0.492528
0.715224
0.850461
0.922771
0.953647
0.961489
0.958594
0.953253
0.950517
0.95321
0.961865
0.974415
0.986377
0.992114
0.98802
0.977709
0.966703
0.959463
0.957954
0.961575
0.967419
0.970336
0.961971
0.930044
0.856216
0.71911
0.494257
0.20883
0.222732
0.531183
0.771529
0.915754
0.991352
1.02214
1.02839
1.02366
1.01708
1.01409
1.01746
1.02731
1.04107
1.05387
1.0599
1.05554
1.04441
1.03221
1.02378
1.02159
1.02547
1.03255
1.0373
1.03052
0.998687
0.921569
0.775475
0.532953
0.222314
0.236547
0.570897
0.829168
0.982491
1.06145
1.09222
1.09697
1.09054
1.08288
1.07982
1.08405
1.09527
1.11035
1.12404
1.13037
1.12573
1.11373
1.10021
1.09042
1.08736
1.0913
1.09946
1.1059
1.10063
1.06882
0.988341
0.833155
0.572703
0.236088
0.250595
0.611396
0.887697
1.05016
1.13256
1.1634
1.1668
1.15885
1.15033
1.14742
1.15273
1.16547
1.18198
1.19662
1.20327
1.19834
1.18539
1.17045
1.15911
1.15496
1.15874
1.16775
1.17571
1.1718
1.13991
1.05601
0.891705
0.613229
0.250095
0.264815
0.652362
0.946612
1.11818
1.20407
1.23514
1.23737
1.22814
1.21903
1.21653
1.22315
1.2376
1.25564
1.27127
1.27826
1.273
1.25906
1.24257
1.22951
1.22404
1.22739
1.23698
1.24622
1.24348
1.21138
1.124
0.950616
0.654214
0.264275
0.279137
0.693436
1.00534
1.18589
1.27533
1.30679
1.30809
1.29788
1.28848
1.2867
1.29487
1.3112
1.33089
1.34756
1.35489
1.34929
1.3343
1.31614
1.30118
1.29413
1.29675
1.30661
1.31683
1.31501
1.28253
1.19164
1.00932
0.695298
0.278557
0.293484
0.734218
1.06326
1.25256
1.34557
1.37762
1.3783
1.36743
1.35811
1.35738
1.36737
1.38577
1.4072
1.42494
1.43261
1.42667
1.41058
1.39065
1.37359
1.3647
1.36624
1.37601
1.38686
1.38568
1.35263
1.25819
1.06718
0.736082
0.292867
0.30777
0.77427
1.11969
1.31739
1.41398
1.44684
1.44722
1.43609
1.42724
1.42792
1.44001
1.46065
1.48391
1.50276
1.51077
1.50446
1.48723
1.46544
1.4461
1.43509
1.4352
1.44447
1.45556
1.45467
1.42084
1.32287
1.12353
0.776128
0.30712
0.321902
0.813123
1.1739
1.37953
1.47966
1.51355
1.51401
1.50306
1.49512
1.49758
1.51205
1.5351
1.56026
1.58023
1.58857
1.58188
1.56348
1.53975
1.51797
1.50455
1.50285
1.51118
1.52208
1.52111
1.48627
1.38482
1.17763
0.814966
0.321224
0.33578
0.850281
1.22513
1.43807
1.54165
1.57682
1.57775
1.56744
1.56086
1.56549
1.58261
1.60822
1.63533
1.65642
1.66509
1.65802
1.63843
1.6127
1.58834
1.57223
1.56832
1.57526
1.58549
1.58405
1.54796
1.44314
1.22873
0.8521
0.335078
0.349296
0.88523
1.27259
1.4921
1.59897
1.63563
1.63745
1.62826
1.62351
1.63069
1.65072
1.67901
1.70809
1.73029
1.73926
1.73181
1.71105
1.68329
1.65621
1.63717
1.63067
1.63573
1.64481
1.64247
1.60493
1.49688
1.27602
0.88701
0.348575
0.362335
0.917446
1.31549
1.54066
1.65059
1.68893
1.69205
1.68448
1.68201
1.69212
1.71527
1.74633
1.77739
1.80065
1.80991
1.8021
1.78019
1.75039
1.7205
1.69829
1.68883
1.69156
1.69899
1.69533
1.65614
1.54512
1.31872
0.919169
0.361598
0.374775
0.946407
1.35305
1.58281
1.69549
1.73566
1.74048
1.73498
1.73523
1.7486
1.77508
1.80895
1.84195
1.86622
1.87574
1.86758
1.84458
1.81278
1.78002
1.75445
1.74168
1.74163
1.74694
1.74157
1.70058
1.5869
1.35604
0.948055
0.374025
0.386492
0.971614
1.38452
1.61765
1.73266
1.77476
1.78162
1.77862
1.78197
1.79889
1.82886
1.86556
1.90041
1.92562
1.93536
1.92689
1.90287
1.86913
1.8335
1.80438
1.788
1.78479
1.78755
1.78013
1.73724
1.62133
1.38725
0.973164
0.385729
0.397353
0.992594
1.40923
1.64436
1.76115
1.80519
1.81436
1.81417
1.8209
1.84163
1.87524
1.91475
1.95137
1.97741
1.98734
1.97859
1.95363
1.91806
1.87955
1.84674
1.82648
1.81982
1.81971
1.80997
1.76519
1.64758
1.41165
0.994026
0.396579
0.407227
1.00893
1.42657
1.66218
1.78011
1.82598
1.83757
1.84035
1.85265
1.87694
1.9128
1.95511
1.99337
2.02012
2.03019
2.02121
1.99543
1.95813
1.91676
1.8815
1.85763
1.84543
1.84231
1.83012
1.78356
1.66492
1.42867
1.01022
0.406444
0.415982
1.02025
1.43605
1.67051
1.78878
1.83621
1.85019
1.85941
1.87652
1.90422
1.94171
1.98517
2.02495
2.05231
2.06246
2.05328
2.0268
1.98789
1.94516
1.90824
1.88089
1.86384
1.85426
1.8397
1.79162
1.67275
1.43781
1.02141
0.415192
0.423486
1.02628
1.4373
1.66887
1.78657
1.83513
1.85463
1.87009
1.89147
1.92234
1.96148
2.00436
2.04468
2.07253
2.08273
2.07338
2.04629
2.00666
1.96445
1.92583
1.89524
1.87387
1.85808
1.83793
1.78879
1.67061
1.43873
1.02729
0.422695
0.429613
1.02681
1.4301
1.65696
1.77302
1.82404
1.85093
1.87151
1.89667
1.9304
1.97109
2.01372
2.05199
2.07943
2.08964
2.08014
2.0533
2.01564
1.9736
1.93335
1.89984
1.87465
1.85377
1.82634
1.77463
1.65822
1.43121
1.02768
0.428827
0.434242
1.02173
1.41439
1.63468
1.74804
1.80592
1.83824
1.86299
1.89144
1.92768
1.96972
2.01217
2.0489
2.07433
2.08365
2.07487
2.04996
2.01372
1.97177
1.93011
1.89403
1.86551
1.84048
1.80771
1.74908
1.63548
1.41519
1.02247
0.433466
0.437258
1.01103
1.39024
1.60225
1.71733
1.77979
1.81598
1.84406
1.87531
1.91365
1.95671
1.9989
2.03437
2.05828
2.06691
2.05866
2.03515
2.00013
1.95835
1.91558
1.87734
1.84598
1.81764
1.7811
1.7181
1.60263
1.39077
1.01165
0.436498
0.438553
0.994772
1.35801
1.56343
1.68023
1.74504
1.78378
1.81444
1.84798
1.88796
1.93164
1.97338
2.00762
2.03029
2.03836
2.03052
2.00815
1.97431
1.93288
1.88942
1.84948
1.81581
1.7849
1.74588
1.68073
1.56375
1.35829
0.995281
0.437813
0.438023
0.973168
1.31926
1.52033
1.63604
1.70134
1.7415
1.77404
1.80934
1.85044
1.89428
1.93527
1.96822
1.98978
1.99737
1.98989
1.96853
1.93588
1.89517
1.85148
1.81036
1.7749
1.74213
1.70174
1.63625
1.52054
1.3196
0.973576
0.437307
0.435591
0.947414
1.27806
1.47207
1.58437
1.6486
1.6892
1.72295
1.75945
1.80111
1.84461
1.88445
1.91602
1.9365
1.94365
1.93651
1.91615
1.88479
1.84519
1.80174
1.76003
1.72333
1.68937
1.6486
1.5843
1.47213
1.27839
0.947905
0.434903
0.432056
0.919728
1.2335
1.41813
1.52509
1.58692
1.62708
1.66139
1.69852
1.74015
1.78279
1.82107
1.85111
1.87048
1.87719
1.87039
1.85107
1.82116
1.78305
1.74043
1.69871
1.66136
1.62684
1.58655
1.52473
1.41801
1.23379
0.920261
0.431472
0.427414
0.889609
1.18498
1.35821
1.45821
1.51653
1.55548
1.58972
1.6269
1.66789
1.7091
1.74546
1.77377
1.79195
1.79822
1.79178
1.77359
1.74532
1.70904
1.66785
1.62671
1.58932
1.55487
1.51584
1.4576
1.35792
1.1852
0.890155
0.426926
0.421478
0.856657
1.13208
1.2922
1.38393
1.43778
1.47481
1.5084
1.545
1.58477
1.62398
1.65809
1.68448
1.70137
1.70716
1.70112
1.68415
1.65773
1.62364
1.58443
1.54448
1.50768
1.47389
1.43681
1.38309
1.29175
1.13221
0.857195
0.42108
0.414038
0.82054
1.07454
1.22014
1.3025
1.3511
1.38558
1.41793
1.45336
1.49132
1.52803
1.55956
1.5838
1.5993
1.60458
1.59898
1.58335
1.559
1.52742
1.49071
1.45255
1.41694
1.3844
1.34988
1.30147
1.21954
1.07459
0.821057
0.413725
0.40486
0.780976
1.0122
1.14212
1.21424
1.25693
1.28833
1.3189
1.35258
1.38815
1.42191
1.45054
1.47245
1.48644
1.49119
1.48606
1.47188
1.4498
1.42107
1.38731
1.35152
1.31769
1.28694
1.25553
1.21306
1.14139
1.01217
0.781463
0.404629
0.393677
0.737705
0.944962
1.05826
1.11951
1.15577
1.18363
1.21191
1.2433
1.27596
1.30636
1.33182
1.35122
1.3636
1.36777
1.36316
1.35054
1.33094
1.30533
1.27493
1.24206
1.21053
1.18208
1.15423
1.1182
1.05744
0.944855
0.738157
0.393526
0.380179
0.690459
0.87272
0.968743
1.01867
1.04813
1.07207
1.09762
1.12623
1.15549
1.18221
1.20425
1.22098
1.23167
1.23524
1.23118
1.22023
1.20326
1.18105
1.15432
1.12485
1.09612
1.07041
1.04649
1.01726
0.967839
0.872544
0.690867
0.380102
0.363988
0.638921
0.795367
0.873704
0.912075
0.934504
0.954245
0.976709
1.00211
1.02759
1.05032
1.06878
1.08272
1.09165
1.09459
1.09113
1.08191
1.06772
1.0491
1.02631
1.00066
0.975142
0.95254
0.932811
0.910611
0.872735
0.795126
0.639276
0.363982
0.344628
0.58267
0.71274
0.773292
0.800114
0.815429
0.830789
0.849894
0.871772
0.893168
0.911657
0.92641
0.937488
0.9446
0.946909
0.944059
0.936644
0.925334
0.910398
0.891815
0.87029
0.84831
0.829075
0.813716
0.798615
0.772271
0.712431
0.582961
0.344688
0.321456
0.521121
0.624622
0.667707
0.683256
0.691498
0.702366
0.717934
0.736079
0.753195
0.767301
0.778233
0.786402
0.791692
0.793368
0.791156
0.785559
0.777148
0.766023
0.751814
0.734607
0.716378
0.700687
0.689805
0.681752
0.666651
0.624246
0.521336
0.32158
0.293495
0.453302
0.530623
0.557208
0.562144
0.563463
0.569722
0.58162
0.595944
0.60872
0.618396
0.62546
0.630709
0.634187
0.63524
0.633656
0.62987
0.624372
0.617114
0.607341
0.594519
0.580138
0.568126
0.561838
0.560678
0.556148
0.530186
0.45343
0.293684
0.259221
0.377981
0.430633
0.44287
0.438516
0.433094
0.434311
0.44218
0.452603
0.461127
0.466461
0.469668
0.471985
0.473638
0.474052
0.473097
0.471143
0.468578
0.465189
0.459784
0.451268
0.440826
0.43286
0.431604
0.437157
0.44186
0.430161
0.37802
0.259476
0.215065
0.291267
0.322485
0.32478
0.314329
0.303079
0.298345
0.300994
0.306999
0.311426
0.312741
0.312251
0.311628
0.311388
0.311107
0.310826
0.310786
0.311178
0.311523
0.310192
0.305838
0.299854
0.297137
0.301844
0.313204
0.32393
0.322046
0.291246
0.215377
0.184475
0.223997
0.240138
0.237745
0.224734
0.208583
0.195858
0.190045
0.18966
0.189787
0.187436
0.183111
0.17879
0.175737
0.174219
0.17504
0.177833
0.181967
0.186238
0.188678
0.188698
0.189147
0.194935
0.207662
0.223903
0.237107
0.239783
0.223986
0.184886
0.00551123
0.0068626
0.00774509
0.00836448
0.00885868
0.00930977
0.0096362
0.00986236
0.0100095
0.0101029
0.0101198
0.010148
0.0101072
0.0101134
0.010184
0.0101778
0.0101501
0.0101292
0.0101376
0.0101375
0.0100682
0.00991391
0.00969133
0.0093351
0.00889764
0.00840997
0.00783081
0.00695734
0.00555108
0.00860808
0.00818537
0.00815546
0.00823686
0.0084109
0.00868637
0.00901039
0.00944983
0.00967044
0.010014
0.0101883
0.0103402
0.0104447
0.0105553
0.0106032
0.0104413
0.0104687
0.0103296
0.0102315
0.0100708
0.00982101
0.00938668
0.00907321
0.00874241
0.00847997
0.00832536
0.00827647
0.008319
0.00873905
0.00926875
0.00869238
0.00823431
0.00802365
0.00803291
0.00822575
0.00870283
0.0103216
0.009876
0.0112133
0.0115603
0.0117851
0.0119594
0.0121238
0.0121186
0.010815
0.0118226
0.0116988
0.0116477
0.0113943
0.0109506
0.00911332
0.00874002
0.00829252
0.0081126
0.00812203
0.00835242
0.00881849
0.00941795
0.00978493
0.00889268
0.00816302
0.00778764
0.00772427
0.00797185
0.00977433
0.00949381
0.0108396
0.0114762
0.0116779
0.012008
0.0120786
0.0122473
0.012345
0.0107504
0.0109319
0.0108524
0.0117899
0.0114815
0.0111336
0.00928166
0.00985691
0.0080592
0.00781232
0.00788822
0.00827233
0.00900554
0.00994025
0.0102209
0.0090476
0.00814313
0.00768755
0.00767069
0.00820961
0.010226
0.00959894
0.011175
0.0116193
0.0106251
0.0119722
0.0109234
0.0111108
0.0123206
0.010736
0.0116005
0.0115079
0.0115691
0.0104682
0.0110807
0.00961111
0.0103484
0.00837903
0.00772575
0.00778575
0.00824348
0.00914788
0.0103743
0.0106204
0.00923482
0.00822598
0.00775888
0.00805823
0.00869477
0.0106476
0.0110357
0.0116595
0.0119688
0.0106765
0.0121353
0.0108678
0.011927
0.0124089
0.0108557
0.0120077
0.0119949
0.0119092
0.0106612
0.011595
0.0109381
0.0109723
0.00978196
0.00792922
0.00784505
0.00831976
0.00932648
0.0107676
0.011012
0.00948286
0.00842114
0.00798892
0.00858108
0.00935163
0.0102712
0.0118752
0.0120879
0.0123226
0.0119696
0.0123827
0.0119978
0.0122687
0.0124615
0.0119915
0.0125016
0.0125614
0.0125688
0.012115
0.0123579
0.0119521
0.0113866
0.00966795
0.00840335
0.00806346
0.00851218
0.00956996
0.0111515
0.0114145
0.00979578
0.00872148
0.00842408
0.00925865
0.0109518
0.0118006
0.0127115
0.0131139
0.0133013
0.0131805
0.0132241
0.0130548
0.0130465
0.013107
0.0129902
0.0132917
0.0134356
0.0135497
0.0134282
0.0134375
0.0130765
0.0123838
0.0111951
0.0100889
0.00847432
0.00881474
0.0098818
0.0115463
0.0118401
0.0101663
0.00912854
0.00998737
0.0108299
0.0122191
0.013191
0.014048
0.0145374
0.0147122
0.0146252
0.0145001
0.0143415
0.0142081
0.0142061
0.0142346
0.014489
0.0147272
0.0149401
0.0149693
0.0148661
0.0144123
0.0135577
0.0122858
0.0102805
0.00918606
0.00921353
0.0102539
0.0119651
0.0122966
0.0105822
0.00958812
0.0109154
0.0119467
0.0133717
0.0146236
0.0156661
0.0162948
0.0165099
0.0164189
0.0161978
0.0159837
0.0157802
0.0157465
0.0158534
0.016127
0.0164591
0.0167541
0.0168473
0.0166541
0.016033
0.0149522
0.013545
0.0118039
0.00996418
0.00968245
0.0106738
0.0124164
0.012789
0.0110337
0.0100974
0.0115412
0.0129266
0.0145768
0.0161817
0.0175193
0.0183591
0.0186751
0.0186002
0.0183244
0.0180432
0.0177931
0.0177418
0.0179002
0.0182186
0.0186325
0.0189844
0.0190824
0.0187715
0.0179219
0.0165421
0.0148548
0.0130167
0.0107898
0.010205
0.0111305
0.0129054
0.0133205
0.0115135
0.0106561
0.0123244
0.0139495
0.0158956
0.0178886
0.0195899
0.0207103
0.0211904
0.0211737
0.0208809
0.0205463
0.0202642
0.0202034
0.0203987
0.0207663
0.0212408
0.0216167
0.0216664
0.0211879
0.0200483
0.0183038
0.0162556
0.0142212
0.0122468
0.0107764
0.0116165
0.0134354
0.0138942
0.0120185
0.011276
0.0131772
0.0150548
0.017334
0.019745
0.021863
0.023328
0.0240353
0.0241282
0.0238592
0.0234975
0.0231979
0.0231341
0.0233556
0.0237649
0.024272
0.0246325
0.0245809
0.023877
0.0223877
0.0202217
0.0177537
0.0154083
0.0133588
0.011464
0.0121277
0.0140091
0.0145134
0.0125597
0.0127508
0.0141884
0.0162619
0.0188925
0.0217476
0.0243262
0.0261928
0.0271884
0.0274456
0.0272446
0.0268891
0.0265892
0.0265292
0.0267678
0.0272025
0.0277099
0.0280112
0.0278039
0.0268162
0.0249231
0.0222906
0.0193668
0.0166638
0.0144789
0.0129897
0.0126801
0.0146304
0.015184
0.0131331
0.0137319
0.015271
0.0175743
0.0205754
0.0238963
0.0269705
0.0292876
0.030626
0.0311012
0.0310147
0.0307022
0.0304226
0.0303743
0.0306206
0.0310592
0.0315309
0.0317271
0.0313112
0.0299871
0.0276438
0.0245102
0.0211064
0.0180137
0.0155906
0.0139889
0.013268
0.0153049
0.0159145
0.0137691
0.0147595
0.0164348
0.0190011
0.0223916
0.0261959
0.0297918
0.032598
0.0343268
0.035071
0.0351451
0.0349138
0.0346775
0.0346496
0.034894
0.0353113
0.0357102
0.0357556
0.0350812
0.0333749
0.0305453
0.0268857
0.0229853
0.0194844
0.0167931
0.0150247
0.0139139
0.0160404
0.0167155
0.0144823
0.0158209
0.017695
0.0205581
0.0243558
0.0286569
0.0327924
0.0361158
0.0382761
0.039336
0.0396152
0.039503
0.039334
0.0393357
0.0395681
0.0399376
0.0402267
0.0400774
0.0390989
0.0369714
0.0336299
0.0294279
0.0250183
0.0210908
0.0180901
0.0160986
0.0146389
0.0168477
0.017601
0.0152946
0.0169593
0.0190795
0.0222681
0.0264883
0.0312951
0.0359809
0.0398395
0.0424603
0.0438709
0.0443954
0.0444415
0.0443673
0.0444094
0.0446177
0.0449096
0.0450505
0.0446672
0.0433514
0.0407759
0.0369067
0.0321531
0.0272263
0.0228573
0.0195139
0.0172566
0.0154628
0.01774
0.0185864
0.016222
0.0182246
0.0206233
0.0241598
0.0288141
0.0341319
0.0393721
0.0437756
0.0468692
0.0486538
0.0494567
0.0496968
0.0497459
0.0498395
0.050011
0.0501952
0.0501533
0.0495045
0.0478296
0.0447958
0.0403914
0.0350832
0.0296347
0.0248132
0.0211026
0.0185459
0.0163951
0.0187323
0.019687
0.0178693
0.0197179
0.0223716
0.0262671
0.0313626
0.0371929
0.0429861
0.0479348
0.0515019
0.0536829
0.0547872
0.0552454
0.0554436
0.0555999