/*--------------------------------*- C++ -*----------------------------------*\
| =========                 |                                                 |
| \\      /  F ield         | OpenFOAM: The Open Source CFD Toolbox           |
|  \\    /   O peration     | Version:  5.x                                   |
|   \\  /    A nd           | Web:      www.OpenFOAM.org                      |
|    \\/     M anipulation  |                                                 |
\*---------------------------------------------------------------------------*/
/*   Windows 32 and 64 bit porting by blueCAPE: http://www.bluecape.com.pt   *\
|  Based on Windows porting (2.0.x v4) by Symscape: http://www.symscape.com   |
\*---------------------------------------------------------------------------*/
FoamFile
{
    version     2.0;
    format      ascii;
    class       volScalarField;
    location    "3.6";
    object      k;
}
// * * * * * * * * * * * * * * * * * * * * * * * * * * * * * * * * * * * * * //

dimensions      [0 2 -2 0 0 0 0];

internalField   nonuniform List<scalar> 
400055
(
0.00182547
0.00207181
0.00228499
0.00246984
0.00265058
0.00282968
0.00297902
0.0030777
0.00314394
0.0031801
0.00319379
0.00319868
0.00319015
0.00319193
0.00321022
0.00320461
0.00319563
0.00320006
0.00320382
0.00319799
0.00316776
0.00310368
0.0030025
0.00285322
0.00267995
0.00250389
0.00232513
0.00210883
0.00184158
0.0019845
0.00243551
0.00270598
0.0029044
0.00309269
0.003279
0.00342882
0.0035016
0.00357227
0.00359592
0.0036139
0.00362182
0.00361864
0.00362568
0.00363886
0.00364811
0.00361863
0.0036199
0.00362514
0.00362022
0.00359563
0.00355442
0.00345365
0.00330199
0.00312018
0.00293746
0.00274554
0.00247468
0.0020172
0.00207977
0.00262461
0.00293594
0.00315189
0.0033518
0.00354146
0.00365717
0.00348866
0.00367915
0.00353893
0.00354397
0.00354864
0.00354528
0.00355191
0.00356022
0.00377541
0.00353982
0.00354272
0.0035561
0.00356299
0.00356754
0.00377203
0.00368795
0.00356632
0.00338021
0.00318552
0.00297367
0.00265638
0.00209772
0.00214896
0.00273181
0.00307156
0.00330779
0.00351981
0.00369228
0.00357913
0.00370082
0.00361411
0.00361895
0.00362483
0.0036315
0.00362884
0.00363523
0.00364092
0.00387344
0.00378311
0.00377496
0.00362608
0.0036434
0.00361853
0.00380161
0.00360287
0.00371918
0.00355164
0.00334308
0.00311001
0.00276369
0.00215777
0.00220303
0.00279771
0.00315865
0.00341602
0.00362622
0.00372128
0.00360613
0.00378966
0.00369605
0.00372614
0.00383693
0.00373725
0.00384448
0.00384432
0.00374407
0.00392992
0.00360926
0.00361719
0.00361432
0.00384036
0.00358963
0.00384227
0.00362949
0.00374152
0.0036698
0.0034527
0.0031965
0.00283083
0.00220756
0.00224885
0.00284481
0.00322379
0.00349928
0.00364065
0.00374139
0.00366909
0.00376026
0.00379405
0.00383243
0.00394169
0.00383843
0.00393369
0.00382968
0.00384363
0.00398775
0.00363681
0.00364277
0.00365589
0.00393658
0.0036174
0.00368022
0.00367451
0.0036606
0.00375104
0.00354049
0.00326026
0.00287825
0.00225228
0.00229081
0.00288577
0.00328235
0.00357806
0.00367748
0.00378535
0.00383585
0.00384481
0.00380525
0.00383289
0.00383023
0.00383783
0.00381644
0.00381406
0.00384203
0.00384852
0.00373461
0.00374273
0.00374196
0.00383547
0.0037167
0.00370669
0.00367913
0.00379363
0.00381346
0.00362151
0.00331744
0.00291844
0.00229488
0.00233183
0.00292742
0.00334223
0.00365237
0.00373783
0.00368219
0.00374715
0.00384538
0.00385296
0.00388738
0.00387785
0.00389614
0.00386752
0.00387101
0.00389295
0.00387679
0.00385665
0.00386941
0.00386928
0.00389323
0.00384101
0.00380208
0.00372058
0.00370353
0.00374753
0.00369444
0.00337604
0.00295867
0.00233728
0.00237381
0.00297301
0.00340518
0.00362564
0.00366238
0.0037163
0.00379227
0.00390853
0.00396295
0.00400982
0.00401395
0.00402528
0.0040089
0.004001
0.00401336
0.00400243
0.00401434
0.00403251
0.00403604
0.00403145
0.00398753
0.00392247
0.00381179
0.00374613
0.00383624
0.003712
0.00343592
0.00300259
0.00238082
0.00241792
0.00302375
0.00347577
0.00367473
0.00370948
0.00380952
0.00390314
0.0040361
0.00412881
0.00419219
0.00421162
0.00421761
0.00421021
0.00419353
0.00419874
0.00419723
0.00421865
0.00424141
0.00424621
0.00422589
0.00416818
0.00407242
0.00393128
0.00381273
0.00376905
0.00374508
0.00350416
0.00305176
0.00242639
0.00246479
0.00307956
0.00355018
0.00369384
0.00378967
0.00391917
0.00405087
0.00421222
0.00434052
0.00442433
0.00445876
0.00446456
0.00446123
0.00444105
0.00444221
0.00444855
0.00447231
0.00449747
0.00450006
0.00446647
0.00438703
0.0042579
0.00408466
0.00392514
0.00381148
0.003798
0.00358036
0.00310643
0.00247453
0.00251468
0.00314006
0.00363153
0.00374719
0.00388198
0.00404684
0.00422636
0.00442483
0.004589
0.00469706
0.00474775
0.00475857
0.00475755
0.00473799
0.00473764
0.00474928
0.004773
0.00479748
0.00479423
0.00474581
0.00464102
0.00447681
0.0042682
0.00406786
0.00389792
0.00378655
0.00366332
0.00316599
0.00252549
0.00256763
0.00320458
0.00371858
0.00382689
0.00399295
0.00419732
0.00442634
0.00466596
0.00486698
0.00500263
0.0050722
0.00509278
0.00509523
0.00507937
0.00507938
0.00509389
0.00511606
0.00513632
0.0051235
0.00505729
0.00492466
0.00472408
0.00447705
0.00423427
0.00401974
0.00385204
0.00374301
0.00322903
0.00257931
0.00262355
0.00327097
0.00376018
0.0039225
0.0041254
0.00437169
0.00464869
0.00493036
0.0051688
0.0053346
0.00542615
0.00546077
0.00546967
0.00546
0.00546183
0.00547709
0.0054959
0.00550826
0.00548213
0.00539501
0.00523261
0.004995
0.00470789
0.00442106
0.00416334
0.00394685
0.00377874
0.00329474
0.0026361
0.00268249
0.00333642
0.00379159
0.00403134
0.00427847
0.00456866
0.00489158
0.00521457
0.00549026
0.00568768
0.00580404
0.0058565
0.00587551
0.00587428
0.00587911
0.00589335
0.00590657
0.00590752
0.00586455
0.00575383
0.00556055
0.00528612
0.00495882
0.00462757
0.00432556
0.00406147
0.00381113
0.00336082
0.00269599
0.00274492
0.00340862
0.00385498
0.00415595
0.00445106
0.00478653
0.00515367
0.0055165
0.00582844
0.00605809
0.00620145
0.00627492
0.00630761
0.00631686
0.00632566
0.00633744
0.00634274
0.00632914
0.00626629
0.00612995
0.00590543
0.00559526
0.00522873
0.00485344
0.00450553
0.00419274
0.00387928
0.00343437
0.00275936
0.00281127
0.00348809
0.00394474
0.0042982
0.0046425
0.00502417
0.00543428
0.0058352
0.00618178
0.00644389
0.00661593
0.00671284
0.0067622
0.0067836
0.00679716
0.00680534
0.00680059
0.00676992
0.00668485
0.00652137
0.00626559
0.00592142
0.00551714
0.00509845
0.0047035
0.00434148
0.00397422
0.00351549
0.00282666
0.00288209
0.00357576
0.00405644
0.00445874
0.00485277
0.00528132
0.00573352
0.00617077
0.00655
0.00684373
0.00704445
0.00716642
0.00723522
0.00727061
0.00728975
0.00729322
0.00727612
0.00722597
0.00711714
0.00692665
0.00664064
0.00626464
0.00582428
0.00536284
0.00491993
0.0045079
0.00409071
0.00360519
0.00289844
0.00295775
0.00367377
0.00418818
0.00463829
0.0050826
0.00555851
0.00605218
0.00652409
0.00693399
0.00725653
0.00748425
0.00763177
0.00772223
0.00777349
0.00779901
0.0077967
0.00776493
0.00769338
0.00756044
0.00734477
0.0070314
0.00662579
0.00615106
0.00564747
0.00515601
0.00469309
0.00422732
0.0037064
0.0029751
0.0030332
0.00377427
0.00434418
0.00483878
0.00533356
0.00585705
0.00639163
0.00689667
0.00733493
0.0076822
0.00793735
0.00810878
0.00821961
0.00828821
0.00832084
0.00831178
0.00826357
0.00817257
0.0080171
0.00777572
0.00743918
0.00700639
0.00649895
0.0059539
0.00541371
0.00489939
0.00438826
0.00380872
0.00305134
0.00311808
0.00390243
0.00452211
0.00506254
0.00560799
0.00617892
0.00675376
0.00729042
0.00775442
0.00812704
0.00841003
0.00860503
0.00873535
0.00881807
0.00885684
0.00884212
0.00878083
0.00867078
0.00849315
0.00822561
0.00786562
0.00740839
0.00686989
0.00628422
0.00569557
0.00512941
0.004571
0.00393778
0.00313676
0.00321301
0.00405038
0.00472377
0.00531239
0.00590873
0.0065266
0.00714083
0.00770755
0.00819457
0.00859325
0.00890014
0.00911716
0.00926752
0.00936565
0.00941119
0.00939007
0.00931425
0.0091849
0.00898673
0.00869704
0.0083129
0.007834
0.00726612
0.00664091
0.00600441
0.00538596
0.00477715
0.00408594
0.00323201
0.00331887
0.00421704
0.00495069
0.00559099
0.00623869
0.00690283
0.00755533
0.00815046
0.0086578
0.00908062
0.00940779
0.00964455
0.00981439
0.00992843
0.00998109
0.00995322
0.00986234
0.00971446
0.00949814
0.00918991
0.00878344
0.00828558
0.00769009
0.00702661
0.00634299
0.00567158
0.00500844
0.00425313
0.00333803
0.00343677
0.00440376
0.005205
0.00590103
0.00660083
0.00731047
0.00799986
0.0086216
0.00914663
0.00959045
0.00993448
0.0101883
0.0103763
0.0105061
0.0105661
0.0105313
0.0104256
0.0102606
0.0100289
0.00970555
0.00927974
0.00876554
0.00814428
0.00744399
0.00671407
0.00598881
0.00526713
0.00444088
0.00345596
0.00356793
0.00461304
0.00548919
0.0062453
0.00699814
0.00775242
0.0084771
0.00912346
0.00966362
0.0101248
0.0104825
0.0107505
0.0109549
0.0110999
0.0111671
0.0111256
0.0110056
0.0108255
0.0105813
0.010246
0.00980429
0.00927625
0.00863121
0.00789577
0.00712043
0.00634029
0.00555567
0.0046515
0.00358704
0.00371549
0.00485102
0.00580638
0.00662681
0.0074337
0.00823166
0.00898974
0.00965855
0.0102112
0.0106862
0.0110544
0.0113337
0.0115524
0.0117116
0.011786
0.0117379
0.0116047
0.0114117
0.0111579
0.0108135
0.0103595
0.00982011
0.00915341
0.00838472
0.00756494
0.00672892
0.00587716
0.004891
0.00373443
0.00387296
0.00512912
0.00616014
0.00704881
0.00791067
0.00875121
0.00954053
0.0102293
0.0107919
0.011277
0.011653
0.0119407
0.0121715
0.0123438
0.012425
0.0123708
0.0122255
0.012022
0.0117613
0.0114106
0.0109477
0.0103995
0.00971345
0.00891368
0.00805064
0.00715788
0.00623515
0.00517094
0.00389114
0.00405489
0.00543619
0.00655336
0.00751468
0.00843238
0.00931417
0.0101322
0.0108383
0.011408
0.0118998
0.0122809
0.0125745
0.012815
0.0129991
0.0130866
0.0130267
0.0128709
0.012659
0.012394
0.0120396
0.0115711
0.0110167
0.010314
0.00948564
0.00858074
0.00763051
0.00663258
0.00548009
0.00407244
0.00425697
0.00577549
0.00698966
0.00802801
0.0090023
0.00992371
0.0107676
0.0114879
0.0120617
0.0125567
0.0129405
0.0132375
0.0134857
0.01368
0.0137735
0.0137084
0.0135434
0.0133254
0.0130586
0.0127026
0.012232
0.0116742
0.0109577
0.0101037
0.00915866
0.00815037
0.00707312
0.00582155
0.00427406
0.00447912
0.00614948
0.00747266
0.00859257
0.00962407
0.0105831
0.0114495
0.0121806
0.0127552
0.0132499
0.0136341
0.0139324
0.0141861
0.0143892
0.0144881
0.0144184
0.0142459
0.0140239
0.0137572
0.0134019
0.0129325
0.0123744
0.0116475
0.0107711
0.00978801
0.00872122
0.00756035
0.00619767
0.0044958
0.00472187
0.00656092
0.008006
0.00921227
0.0103014
0.0112955
0.0121806
0.0129187
0.0134904
0.0139812
0.0143638
0.0146615
0.0149188
0.0151293
0.0152331
0.0151594
0.0149808
0.0147567
0.0144919
0.0141392
0.0136744
0.0131196
0.012386
0.0114911
0.0104725
0.00934694
0.00809782
0.00661103
0.00473802
0.0049863
0.00701283
0.00859335
0.009891
0.0110378
0.0120642
0.0129638
0.0137044
0.0142694
0.0147525
0.0151313
0.0154269
0.0156863
0.0159028
0.016011
0.0159339
0.0157506
0.0155259
0.0152646
0.0149165
0.0144601
0.0139123
0.0131762
0.0122668
0.0112157
0.0100314
0.00868913
0.00706458
0.00500169
0.00527357
0.00750817
0.00923824
0.0106324
0.0118367
0.012892
0.0138014
0.0145401
0.0150943
0.0155656
0.0159386
0.0162306
0.0164908
0.0167121
0.0168241
0.0167443
0.0165576
0.0163337
0.016077
0.0157354
0.0152916
0.0147545
0.0140204
0.0131012
0.0120209
0.0107782
0.00933778
0.00756133
0.00528799
0.00558467
0.00804951
0.00994383
0.0114398
0.0127012
0.0137816
0.0146958
0.0154276
0.0159672
0.016422
0.0167872
0.0170746
0.0173345
0.0175596
0.0176749
0.017593
0.0174039
0.0171817
0.0169307
0.0165976
0.0161709
0.0156483
0.014921
0.013997
0.0128912
0.0115906
0.0100469
0.00810392
0.00559793
0.00592028
0.00863898
0.0107128
0.0123161
0.0136338
0.0147353
0.0156492
0.0163689
0.01689
0.0173237
0.0176789
0.0179608
0.0182195
0.0184475
0.0185657
0.0184821
0.0182915
0.0180718
0.0178274
0.0175047
0.0170999
0.0165955
0.0158802
0.0149565
0.0138292
0.0124715
0.0108192
0.00869452
0.00593224
0.00628075
0.00927822
0.0115473
0.0132633
0.0146367
0.0157551
0.0166631
0.0173656
0.0178645
0.0182722
0.0186155
0.0188909
0.0191479
0.0193781
0.0194987
0.019414
0.0192224
0.0190057
0.0187685
0.0184583
0.0180802
0.0175978
0.0168996
0.0159814
0.0148369
0.0134228
0.0116567
0.00933478
0.00629128
0.0066661
0.00996848
0.0124491
0.0142833
0.0157114
0.0168424
0.0177391
0.0184192
0.0188924
0.0192693
0.0195984
0.0198668
0.0201216
0.0203535
0.0204762
0.0203907
0.0201986
0.019985
0.0197555
0.01946
0.0191134
0.0186565
0.0179805
0.0170734
0.0159158
0.0144465
0.0125611
0.0100259
0.00667507
0.00707608
0.0107107
0.0134192
0.0153774
0.0168592
0.0179984
0.0188782
0.0195309
0.019975
0.0203164
0.0206294
0.0208902
0.0211426
0.0213759
0.0215003
0.0214143
0.021222
0.0210114
0.02079
0.020511
0.0202007
0.0197728
0.0191241
0.0182334
0.0170672
0.0155436
0.0135335
0.0107688
0.00708334
0.00751012
0.0115054
0.0144586
0.0165461
0.0180805
0.0192235
0.0200811
0.0207015
0.0211132
0.0214149
0.02171
0.0219627
0.0222129
0.0224473
0.0225734
0.022487
0.0222944
0.0220865
0.0218735
0.0216128
0.0213429
0.0209476
0.020331
0.0194621
0.0182916
0.0167149
0.0145748
0.0115641
0.00751556
0.00796741
0.0123529
0.0155675
0.0177897
0.0193757
0.020518
0.0213482
0.0219315
0.0223078
0.0225659
0.0228417
0.0230862
0.0233343
0.02357
0.0236976
0.0236109
0.0234177
0.023212
0.0230074
0.0227666
0.0225409
0.0221812
0.0216015
0.0207596
0.0195892
0.0179607
0.0156853
0.0124119
0.00797096
0.00844695
0.0132531
0.0167459
0.0191079
0.0207442
0.0218817
0.0226793
0.0232212
0.0235592
0.0237711
0.0240257
0.024262
0.0245087
0.0247459
0.0248749
0.0247879
0.0245937
0.0243896
0.0241934
0.0239762
0.0237952
0.0234739
0.0229356
0.0221257
0.0209598
0.0192807
0.016865
0.0133124
0.00844857
0.00894755
0.0142056
0.017993
0.0204999
0.0221853
0.0233138
0.0240739
0.0245701
0.0248675
0.0250394
0.0252642
0.0254919
0.0257378
0.0259771
0.0261075
0.02602
0.0258243
0.025621
0.0254335
0.0252479
0.0251058
0.0248255
0.0243326
0.0235597
0.0224024
0.0206741
0.0181134
0.0142653
0.00894728
0.00946792
0.0152098
0.0193078
0.0219642
0.0236974
0.0248129
0.0255311
0.0259777
0.0262323
0.0263683
0.0265582
0.0267772
0.0270234
0.0272653
0.0273972
0.0273092
0.0271111
0.0269075
0.0267288
0.0265794
0.0264727
0.0262353
0.0257917
0.0250603
0.0239156
0.0221395
0.0194293
0.0152699
0.00946582
0.0100067
0.0162645
0.0206884
0.0234985
0.0252782
0.0263771
0.0270491
0.0274428
0.0276528
0.0277559
0.0279086
0.0281194
0.028367
0.0286123
0.0287459
0.028657
0.0284558
0.0282507
0.0280804
0.027969
0.0278949
0.0277021
0.0273112
0.0266254
0.0254971
0.0236746
0.0208109
0.016325
0.0100028
0.0105624
0.0173679
0.0221321
0.0250998
0.0269248
0.0280038
0.028626
0.0289638
0.0291279
0.0292005
0.0293166
0.0295199
0.0297702
0.03002
0.0301554
0.0300653
0.02986
0.0296522
0.0294897
0.0294153
0.0293714
0.0292244
0.028889
0.0282526
0.0271441
0.0252766
0.0222557
0.017429
0.0105569
0.0111336
0.018518
0.0236356
0.0267641
0.0286333
0.0296896
0.030259
0.0305385
0.030656
0.0307004
0.030785
0.0309803
0.0312352
0.0314907
0.0316283
0.0315366
0.0313258
0.0311138
0.030962
0.0309165
0.0309006
0.0308001
0.0305224
0.0299385
0.0288527
0.0269414
0.0237601
0.0185797
0.0111265
0.0117187
0.0197118
0.0251945
0.0284865
0.030399
0.0314303
0.0319447
0.0321645
0.032235
0.0322536
0.0323205
0.0325018
0.0327662
0.0330352
0.0331768
0.033082
0.0328592
0.0326386
0.0324998
0.0324706
0.0324803
0.0324264
0.032208
0.0316789
0.0306183
0.0286641
0.0253198
0.0197741
0.0117101
0.0123161
0.0209458
0.0268034
0.0302611
0.0322163
0.0332211
0.0336789
0.0338384
0.0338625
0.0338575
0.0339161
0.0340967
0.0343736
0.0346555
0.034801
0.0347029
0.034468
0.0342351
0.0340966
0.0340748
0.0341079
0.0341
0.0339417
0.033469
0.0324351
0.0304387
0.0269293
0.0210087
0.0123059
0.0129241
0.0222156
0.028456
0.0320811
0.0340786
0.035056
0.0354569
0.0355563
0.0355352
0.0355093
0.0355665
0.0357553
0.0360479
0.0363429
0.0364923
0.0363905
0.0361428
0.0358944
0.0357472
0.0357264
0.03578
0.035817
0.0357185
0.0353029
0.0342966
0.0322584
0.0285824
0.0222791
0.0129124
0.0135409
0.0235163
0.0301451
0.0339384
0.0359782
0.0369284
0.0372729
0.0373135
0.0372494
0.0372055
0.0372664
0.0374701
0.0377813
0.0380897
0.0382433
0.0381375
0.0378763
0.0376093
0.0374468
0.0374217
0.0374929
0.0375725
0.0375327
0.0371737
0.0361952
0.0341152
0.0302715
0.0235803
0.0135277
0.0141647
0.0248421
0.0318624
0.0358243
0.0379068
0.0388307
0.0391203
0.0391044
0.0390002
0.0389417
0.039011
0.0392346
0.0395669
0.0398895
0.0400473
0.0399373
0.0396618
0.0393734
0.0391905
0.0391564
0.0392416
0.0393609
0.0393776
0.0390738
0.0381222
0.0360001
0.0319886
0.0249064
0.0141501
0.0147936
0.0261865
0.0335987
0.0377288
0.0398548
0.040754
0.0409915
0.0409226
0.0407822
0.0407131
0.0407948
0.0410424
0.0413981
0.0417358
0.041898
0.0417836
0.0414929
0.0411806
0.0409731
0.0409256
0.0410206
0.0411756
0.0412455
0.0409945
0.0400681
0.0379031
0.0337242
0.0262511
0.0147774
0.0154255
0.0275425
0.035344
0.0396412
0.0418116
0.0426888
0.0428777
0.0427602
0.0425886
0.0425135
0.042612
0.0428871
0.0432685
0.043622
0.0437889
0.0436697
0.0433629
0.0430245
0.0427885
0.0427232
0.0428233
0.0430091
0.0431278
0.0429259
0.0420221
0.0398133
0.0354684
0.027607
0.0154078
0.0160582
0.0289021
0.0370874
0.0415494
0.0437656
0.0446243
0.0447694
0.0446088
0.0444116
0.0443359
0.0444555
0.0447617
0.0451707
0.0455409
0.0457126
0.0455885
0.0452646
0.0448979
0.0446299
0.0445422
0.0446418
0.0448527
0.0450146
0.0448571
0.0439725
0.0417188
0.0372101
0.0289662
0.0160391
0.0166895
0.0302567
0.038817
0.0434407
0.045704
0.0465483
0.0466553
0.0464582
0.0462422
0.0461719
0.0463175
0.046658
0.0470966
0.0474843
0.047661
0.0475315
0.0471896
0.0467926
0.046489
0.046374
0.0464671
0.0466964
0.0468951
0.0467761
0.0459066
0.0436065
0.0389375
0.0303203
0.0166689
0.0173169
0.0315972
0.0405201
0.0453013
0.0476132
0.0484479
0.0485235
0.0482973
0.0480699
0.0480118
0.0481885
0.0485668
0.0490367
0.0494426
0.0496244
0.0494892
0.0491283
0.048699
0.0483565
0.048209
0.0482889
0.048529
0.0487568
0.0486697
0.0478104
0.0454626
0.0406377
0.0316599
0.0172949
0.0179378
0.0329135
0.0421832
0.0471162
0.0494781
0.0503086
0.0503603
0.0501134
0.0498831
0.0498444
0.0500577
0.0504772
0.05098
0.0514046
0.0515914
0.0514502
0.0510695
0.050606
0.0502212
0.050036
0.0500955
0.050338
0.0505864
0.0505235
0.0496689
0.0472723
0.0422975
0.0329751
0.0179145
0.0185496
0.0341952
0.043792
0.0488699
0.0512829
0.0521151
0.052151
0.0518927
0.0516685
0.051657
0.0519124
0.0523764
0.0529138
0.0533575
0.0535491
0.0534015
0.0530002
0.0525011
0.0520706
0.0518422
0.0518736
0.0521094
0.052369
0.052322
0.0514664
0.04902
0.0439024
0.0342556
0.018525
0.0191491
0.0354313
0.0453317
0.0505457
0.0530107
0.0538507
0.0538796
0.0536197
0.0534112
0.0534349
0.0537382
0.0542498
0.054823
0.055286
0.0554823
0.055328
0.0549057
0.0543694
0.0538902
0.053613
0.0536085
0.0538279
0.0540887
0.0540485
0.0531858
0.0506891
0.0454379
0.0354903
0.0191235
0.0197334
0.0366104
0.0467868
0.0521266
0.0546436
0.0554976
0.055529
0.0552777
0.0550947
0.0551618
0.0555186
0.0560809
0.0566908
0.0571729
0.0573737
0.0572125
0.0567689
0.0561945
0.0556638
0.0553324
0.0552837
0.0554768
0.0557282
0.0556855
0.0548095
0.0522626
0.0468884
0.0366681
0.0197069
0.0202991
0.037721
0.0481417
0.0535947
0.0561632
0.0570374
0.0570806
0.0568486
0.0567012
0.0568198
0.0572353
0.0578507
0.058498
0.058999
0.0592039
0.059036
0.0585711
0.0579579
0.0573732
0.0569824
0.0568814
0.057038
0.0572692
0.0572144
0.0563192
0.0537229
0.0482385
0.0377772
0.020272
0.0208428
0.0387513
0.0493806
0.0549322
0.0575504
0.0584505
0.0585151
0.058313
0.0582111
0.0583891
0.0588682
0.0595386
0.0602232
0.0607426
0.0609515
0.0607769
0.0602911
0.0596389
0.0589983
0.0585434
0.0583823
0.0584923
0.0586924
0.058616
0.0576958
0.0550521
0.0494721
0.0388059
0.0208155
0.0213611
0.0396897
0.0504878
0.0561211
0.0587861
0.0597172
0.0598122
0.0596504
0.0596036
0.0598482
0.060395
0.0611218
0.0618433
0.0623805
0.062593
0.0624121
0.0619061
0.0612153
0.0605175
0.0599943
0.0597656
0.0598191
0.0599777
0.0598703
0.0589201
0.0562322
0.0505737
0.0397422
0.0213335
0.0218501
0.0405246
0.0514481
0.0571438
0.0598509
0.0608173
0.0609512
0.0608395
0.0608564
0.0611743
0.0617924
0.062576
0.0633337
0.0638875
0.0641033
0.0639167
0.0633916
0.0626629
0.0619072
0.061312
0.061009
0.060997
0.0611041
0.0609574
0.059973
0.0572453
0.0515277
0.0405747
0.0218225
0.0223061
0.0412453
0.0522471
0.0579834
0.0607261
0.0617307
0.061911
0.0618577
0.0619459
0.0623429
0.0630353
0.0638758
0.0646682
0.0652374
0.0654561
0.0652644
0.0647215
0.0639564
0.0631426
0.062472
0.0620885
0.0620036
0.0620506
0.0618571
0.0608356
0.0580746
0.0523197
0.0412924
0.0222783
0.0227252
0.0418416
0.0528713
0.058624
0.061394
0.0624377
0.06267
0.0626813
0.062846
0.0633271
0.0640972
0.0649947
0.06582
0.066403
0.066624
0.0664278
0.0658689
0.0650689
0.0641968
0.0634474
0.0629782
0.0628147
0.0627957
0.0625499
0.0614901
0.0587041
0.0529361
0.041885
0.0226973
0.0231035
0.0423043
0.0533089
0.0590512
0.0618377
0.0629196
0.0632061
0.0632847
0.0635736
0.064133
0.0649503
0.0659049
0.0667615
0.0673566
0.0675793
0.0673794
0.0668061
0.0659729
0.065042
0.0642403
0.0636917
0.0634048
0.0633171
0.0630167
0.06192
0.0591198
0.0533653
0.0423435
0.0230753
0.0234368
0.0426255
0.0535499
0.0592528
0.0620424
0.0631579
0.0634975
0.0637205
0.0641195
0.0647529
0.0656022
0.0665783
0.0674648
0.0680704
0.0682942
0.0680911
0.0675049
0.0666397
0.0656821
0.064848
0.0642235
0.0638255
0.0635931
0.0632396
0.0621105
0.0593094
0.0535975
0.0426602
0.0234084
0.0237214
0.0427988
0.0535865
0.0592188
0.0619951
0.0631362
0.0636005
0.0639664
0.0644619
0.0651646
0.0660477
0.0670065
0.0679019
0.0685168
0.068741
0.068535
0.0679372
0.0670585
0.0661166
0.0652472
0.0645519
0.0640564
0.0636819
0.0632022
0.0620491
0.0592635
0.0536253
0.042829
0.0236929
0.0239533
0.0428194
0.0534131
0.0589418
0.0616855
0.0628847
0.0635195
0.0640022
0.0645827
0.065349
0.0662653
0.0672166
0.0680639
0.0686682
0.0688926
0.0686837
0.0680929
0.0672601
0.0663235
0.0654191
0.0646587
0.0640772
0.0635867
0.0629394
0.0617255
0.058975
0.0534435
0.0428452
0.0239249
0.0241288
0.0426842
0.0530271
0.0584175
0.0611094
0.0624725
0.0632335
0.0638118
0.0644673
0.0652905
0.0662369
0.0671849
0.0679983
0.0685569
0.0687621
0.0685688
0.0680216
0.0672201
0.0662848
0.0653481
0.0645293
0.0638721
0.0632868
0.0625157
0.0611365
0.0584397
0.0530495
0.0427059
0.0241007
0.0242441
0.0423918
0.0524282
0.0576477
0.0603968
0.0618742
0.0627268
0.063383
0.0641037
0.0649762
0.0659478
0.0668923
0.0676798
0.0682061
0.0683968
0.0682145
0.0676973
0.0669202
0.0659858
0.0650221
0.0641523
0.0634292
0.0627667
0.0619061
0.0604178
0.0576599
0.0524434
0.0424099
0.0242165
0.0242956
0.0419426
0.0516213
0.05672
0.0595307
0.0610722
0.0619883
0.0627069
0.063483
0.0643966
0.0653861
0.0663247
0.0670889
0.0675905
0.0677699
0.0675959
0.067101
0.0663459
0.0654149
0.0644315
0.063519
0.0627399
0.0620155
0.0610933
0.059545
0.0567302
0.0516301
0.0419575
0.0242689
0.0242798
0.0413397
0.0506424
0.0556809
0.0584897
0.0600545
0.0610103
0.0617773
0.0625988
0.0635442
0.0645432
0.0654712
0.0662119
0.0666928
0.0668628
0.0666956
0.0662194
0.0654855
0.0645643
0.0635688
0.0626233
0.061798
0.0610257
0.0600654
0.0584971
0.0556881
0.0506524
0.0413518
0.0242539
0.0241934
0.0406143
0.0495914
0.0545048
0.0572592
0.0588131
0.059788
0.06059
0.0614467
0.0624133
0.0634133
0.0643233
0.0650396
0.0655011
0.0656628
0.0655017
0.065043
0.0643315
0.0634273
0.0624286
0.0614609
0.0605996
0.0597926
0.0588146
0.0572597
0.0545083
0.0496012
0.0406287
0.0241687
0.0240667
0.0398271
0.0484409
0.0531733
0.0558291
0.0573431
0.0583185
0.0591427
0.0600239
0.0610005
0.0619919
0.0628764
0.0635658
0.0640078
0.0641615
0.0640063
0.0635657
0.062879
0.0619988
0.0610075
0.0600287
0.0591423
0.0583133
0.0573357
0.0558226
0.0531725
0.0484495
0.0398427
0.0240455
0.0238988
0.0389606
0.0471706
0.0516728
0.0541922
0.0556409
0.0566001
0.0574341
0.0583283
0.0593034
0.0602754
0.0611274
0.0617866
0.0622077
0.0623532
0.0622043
0.061783
0.0611249
0.060275
0.0593031
0.0583243
0.0574248
0.056586
0.0556254
0.0541792
0.0516674
0.0471773
0.0389766
0.023881
0.0236819
0.038
0.0457642
0.0499928
0.0523429
0.053704
0.0546313
0.0554628
0.0563581
0.0573202
0.0582612
0.0590739
0.0596988
0.0600971
0.0602339
0.0600918
0.059692
0.0590664
0.058254
0.0573129
0.056346
0.0554456
0.0546093
0.0536812
0.0523238
0.0499829
0.0457685
0.0380158
0.0236672
0.0234071
0.0369313
0.0442079
0.048124
0.050276
0.0515292
0.0524102
0.0532269
0.054111
0.055048
0.055947
0.0567135
0.0572996
0.0576725
0.0577998
0.0576653
0.0572894
0.0567011
0.0559334
0.055034
0.0540916
0.0532027
0.0523812
0.0514998
0.0502513
0.0481098
0.0442097
0.0369466
0.0233953
0.0230644
0.035741
0.0424887
0.0460573
0.0479854
0.0491121
0.0499333
0.0507231
0.0515836
0.0524829
0.0533297
0.0540426
0.0545852
0.05493
0.0550469
0.0549208
0.0545716
0.0540254
0.05331
0.0524628
0.0515576
0.0506928
0.0498982
0.0490771
0.0479555
0.046039
0.0424879
0.0357554
0.0230554
0.0226419
0.0344146
0.0405925
0.0437817
0.0454626
0.0464462
0.0471947
0.0479456
0.0487702
0.0496193
0.0504039
0.0510558
0.0515497
0.0518636
0.0519692
0.0518526
0.051533
0.0510342
0.0503787
0.0495936
0.0487386
0.04791
0.0471545
0.0464062
0.0454282
0.0437596
0.0405893
0.0344279
0.0226356
0.0221253
0.0329349
0.0385031
0.0412833
0.0426961
0.0435209
0.0441848
0.0448854
0.0456618
0.0464482
0.0471614
0.0477446
0.0481848
0.0484646
0.0485579
0.0484519
0.0481651
0.0477191
0.0471314
0.0464178
0.0456258
0.0448454
0.0441404
0.0434765
0.0426574
0.0412577
0.0384973
0.0329469
0.0221215
0.0214964
0.0312804
0.0361994
0.0385436
0.0396691
0.0403209
0.040889
0.0415286
0.0422452
0.0429574
0.0435879
0.0440961
0.0444771
0.0447198
0.0447997
0.0447054
0.0444548
0.0440673
0.0435549
0.0429224
0.0422054
0.041485
0.0408409
0.0402725
0.0396264
0.0385144
0.0361909
0.0312907
0.0214949
0.0207308
0.0294214
0.0336527
0.0355368
0.0363578
0.0368227
0.0372845
0.0378535
0.0384998
0.0391266
0.039664
0.0400891
0.0404061
0.0406084
0.0406736
0.0405924
0.0403814
0.040058
0.0396278
0.0390877
0.038457
0.037807
0.0372334
0.0367707
0.0363113
0.0355041
0.0336413
0.0294297
0.0207312
0.0197942
0.0273156
0.0308239
0.032229
0.0327301
0.0329936
0.0333376
0.0338272
0.0343941
0.0349249
0.0353587
0.0356917
0.0359384
0.036097
0.0361465
0.0360798
0.0359115
0.0356578
0.0353193
0.0348825
0.0343488
0.0337784
0.033284
0.0329384
0.0326801
0.0321928
0.0308092
0.0273214
0.0197961
0.0186323
0.0248947
0.0276531
0.0285721
0.028742
0.0287858
0.028996
0.0293961
0.0298762
0.0303016
0.0306209
0.0308509
0.0310197
0.0311303
0.0311628
0.0311115
0.0309903
0.0308137
0.0305779
0.0302559
0.0298287
0.0293459
0.0289408
0.0287283
0.0286891
0.0285329
0.027635
0.0248978
0.018635
0.0171551
0.0220571
0.0240641
0.0245206
0.0243599
0.0241555
0.0241959
0.0244837
0.0248661
0.0251778
0.0253705
0.0254829
0.0255616
0.0256164
0.0256285
0.025595
0.0255286
0.0254413
0.0253231
0.0251287
0.0248173
0.0244332
0.0241406
0.0240975
0.0243061
0.0244797
0.0240432
0.0220574
0.0171575
0.0151499
0.0185409
0.0198474
0.019945
0.019515
0.0190422
0.0188359
0.0189409
0.0191901
0.0193746
0.0194278
0.0194024
0.0193691
0.0193516
0.0193355
0.019326
0.0193312
0.0193554
0.0193761
0.0193236
0.0191424
0.0188934
0.0187843
0.0189885
0.0194653
0.0199067
0.0198265
0.0185391
0.0151504
0.011931
0.0135763
0.0142236
0.0141325
0.0136135
0.0129504
0.0124104
0.0121538
0.0121313
0.0121351
0.0120327
0.0118405
0.0116427
0.011497
0.0114232
0.0114654
0.0115999
0.0117908
0.0119824
0.0120902
0.0120935
0.0121186
0.0123735
0.0129127
0.0135787
0.014105
0.014207
0.0135721
0.011927
0.00220143
0.00272006
0.00306051
0.00329561
0.00347898
0.00365002
0.00378418
0.00386932
0.00393686
0.00397914
0.00399396
0.00400841
0.00399432
0.00399101
0.00402678
0.00402251
0.0040031
0.00400255
0.00399372
0.0039874
0.0039598
0.00390295
0.00381888
0.00368015
0.00351126
0.00332256
0.00309959
0.00276051
0.00221043
0.00234011
0.00342337
0.00382664
0.00405813
0.00424338
0.00442287
0.00456751
0.00466687
0.00474587
0.0048069
0.00484012
0.00487075
0.00487419
0.00488729
0.00491865
0.00490443
0.00488346
0.00486245
0.00484594
0.00482487
0.00478061
0.00470018
0.00460017
0.00444915
0.00427254
0.00408881
0.00387112
0.0034748
0.00237053
0.00245974
0.00373405
0.00417343
0.00441084
0.00460746
0.00479332
0.00494
0.00502556
0.00516345
0.00519651
0.00523758
0.00527366
0.00528766
0.00530593
0.00532886
0.00536915
0.00529477
0.00526963
0.00525039
0.0052189
0.00516021
0.00509589
0.0049735
0.00482135
0.00463778
0.00444472
0.00421809
0.0037843
0.00249628
0.00255066
0.00387538
0.00433713
0.00459254
0.00480772
0.00499858
0.00513766
0.00530678
0.00538437
0.00544864
0.00548905
0.00551995
0.00553175
0.00554628
0.00556011
0.00562531
0.00559223
0.00557433
0.00551008
0.00547931
0.00540958
0.0053637
0.00517608
0.005034
0.00484372
0.00463069
0.00438147
0.00392219
0.00258866
0.00262572
0.00395651
0.00444223
0.00472789
0.00496416
0.00519999
0.00534675
0.00556134
0.00562774
0.0056967
0.00578836
0.00575184
0.00581283
0.0058215
0.00576505
0.00583635
0.00580523
0.00580721
0.00579311
0.00579837
0.0056952
0.00561402
0.00539331
0.0052445
0.0050109
0.00477103
0.00448652
0.00399961
0.00266243
0.00269329
0.00401891
0.00453556
0.0048606
0.00514584
0.0054186
0.00560097
0.00580687
0.00592463
0.00599509
0.00609658
0.00602302
0.00608829
0.00602875
0.00600128
0.00609216
0.00605946
0.00608101
0.00609916
0.00613042
0.00601398
0.00589316
0.00565138
0.00542988
0.00519153
0.00490988
0.00458041
0.00405907
0.00272734
0.00275857
0.00408186
0.00463706
0.00500851
0.00534576
0.00567596
0.0059708
0.0061613
0.00635308
0.00642953
0.00646555
0.00642294
0.00641431
0.00637886
0.00636564
0.00641142
0.00641677
0.00646045
0.00649833
0.00652335
0.00642677
0.00626391
0.00601219
0.005728
0.00539992
0.00506356
0.0046831
0.00412002
0.00278944
0.00282483
0.00415266
0.00475219
0.0051709
0.005574
0.0059634
0.0063572
0.00664574
0.00684561
0.00693017
0.00693854
0.00689753
0.00684883
0.00681562
0.00680603
0.00683795
0.00688261
0.00694812
0.00700167
0.00702136
0.00693227
0.00673422
0.00642661
0.00603825
0.00561517
0.00522828
0.00479968
0.00418968
0.0028525
0.00289406
0.00423232
0.00487933
0.00533303
0.00581486